                               Psi4 1.4a2.dev191

  ==> Input File <==

--------------------------------------------------------------------------
memory 10 GB

molecule  {
0 1
S
S 1 r1
S 1 r2 2 a1
r1 = 2.0
r2 = 2.1
a1 = 120.0
}

set {
reference uks
basis aug-cc-pvtz
g_convergence gau_verytight
dft_spherical_points 590
dft_radial_points 99
}

optimize('wb97m-v')
frequencies('wb97m-v')

--------------------------------------------------------------------------

    Molecular point group: cs
  Charge       = 0
  Multiplicity = 1
  Basis Set: AUG-CC-PVTZ
    Blend: AUG-CC-PVTZ
  Basis Set: (AUG-CC-PVTZ AUX)
    Blend: AUG-CC-PVTZ-JKFIT
  @DF-UKS Final Energy: -1194.52909754958091
    Total Energy =                      -1194.5290975495809107
    Molecular point group: cs
  Basis Set: AUG-CC-PVTZ
    Blend: AUG-CC-PVTZ
  Basis Set: (AUG-CC-PVTZ AUX)
    Blend: AUG-CC-PVTZ-JKFIT
  @DF-UKS Final Energy: -1194.52915529764823
    Total Energy =                      -1194.5291552976480034
  Basis Set: AUG-CC-PVTZ
    Blend: AUG-CC-PVTZ
  Basis Set: (AUG-CC-PVTZ AUX)
    Blend: AUG-CC-PVTZ-JKFIT
  @DF-UKS Final Energy: -1194.52903965685482
    Total Energy =                      -1194.5290396568545930
  Basis Set: AUG-CC-PVTZ
    Blend: AUG-CC-PVTZ
  Basis Set: (AUG-CC-PVTZ AUX)
    Blend: AUG-CC-PVTZ-JKFIT
  @DF-UKS Final Energy: -1194.52910457118378
    Total Energy =                      -1194.5291045711837796
  @DF-UKS Final Energy: -1194.52909027232727
    Total Energy =                      -1194.5290902723272666
  @DF-UKS Final Energy: -1194.52916598918932
    Total Energy =                      -1194.5291659891893232
  @DF-UKS Final Energy: -1194.52902900595836
    Total Energy =                      -1194.5290290059583640
  @DF-UKS Final Energy: -1194.54745538713291
    Total Energy =                      -1194.5474553871329135
  @DF-UKS Final Energy: -1194.54748460450719
    Total Energy =                      -1194.5474846045069626
  @DF-UKS Final Energy: -1194.54742591412651
    Total Energy =                      -1194.5474259141265065
  @DF-UKS Final Energy: -1194.54745648848507
    Total Energy =                      -1194.5474564884850679
  @DF-UKS Final Energy: -1194.54745389764707
    Total Energy =                      -1194.5474538976470740
  @DF-UKS Final Energy: -1194.54747681884282
    Total Energy =                      -1194.5474768188428243
  @DF-UKS Final Energy: -1194.54743378477019
    Total Energy =                      -1194.5474337847701918
  @DF-UKS Final Energy: -1194.54890173169088
    Total Energy =                      -1194.5489017316911031
  @DF-UKS Final Energy: -1194.54888633554992
    Total Energy =                      -1194.5488863355496960
  @DF-UKS Final Energy: -1194.54891677198884
    Total Energy =                      -1194.5489167719890702
  @DF-UKS Final Energy: -1194.54890433303171
    Total Energy =                      -1194.5489043330317145
  @DF-UKS Final Energy: -1194.54889865430732
    Total Energy =                      -1194.5488986543070951
  @DF-UKS Final Energy: -1194.54888865403382
    Total Energy =                      -1194.5488886540338171
  **** Optimization is complete! (in 8 steps) ****
    Final optimized geometry and variables:
  @DF-UKS Final Energy: -1194.54938681035878
    Total Energy =                      -1194.5493868103587829
  @DF-UKS Final Energy: -1194.54938665291547
    Total Energy =                      -1194.5493866529152456
  @DF-UKS Final Energy: -1194.54938664974907
    Total Energy =                      -1194.5493866497490671
  @DF-UKS Final Energy: -1194.54938658704782
    Total Energy =                      -1194.5493865870478203
  @DF-UKS Final Energy: -1194.54938658658170
    Total Energy =                      -1194.5493865865817043
  @DF-UKS Final Energy: -1194.54938671112222
    Total Energy =                      -1194.5493867111224517
  @DF-UKS Final Energy: -1194.54938670898537
    Total Energy =                      -1194.5493867089855939
  @DF-UKS Final Energy: -1194.54938681036197
    Total Energy =                      -1194.5493868103619661
  @DF-UKS Final Energy: -1194.54938665291729
    Total Energy =                      -1194.5493866529172919
  @DF-UKS Final Energy: -1194.54938664974975
    Total Energy =                      -1194.5493866497497493
  @DF-UKS Final Energy: -1194.54938658704918
    Total Energy =                      -1194.5493865870489572
  @DF-UKS Final Energy: -1194.54938658658057
    Total Energy =                      -1194.5493865865807948
  @DF-UKS Final Energy: -1194.54938671112859
    Total Energy =                      -1194.5493867111285908
  @DF-UKS Final Energy: -1194.54938670898446
    Total Energy =                      -1194.5493867089844571
  @DF-UKS Final Energy: -1194.54938653913359
    Total Energy =                      -1194.5493865391335930
  @DF-UKS Final Energy: -1194.54938654178318
    Total Energy =                      -1194.5493865417831785
  Basis Set: AUG-CC-PVTZ
    Blend: AUG-CC-PVTZ
  Basis Set: (AUG-CC-PVTZ AUX)
    Blend: AUG-CC-PVTZ-JKFIT
  @DF-UKS Final Energy: -1194.54938641425792
    Total Energy =                      -1194.5493864142579241
  Basis Set: AUG-CC-PVTZ
    Blend: AUG-CC-PVTZ
  Basis Set: (AUG-CC-PVTZ AUX)
    Blend: AUG-CC-PVTZ-JKFIT
  @DF-UKS Final Energy: -1194.54938641283616
    Total Energy =                      -1194.5493864128361565
  Multiplicity = 1
  Basis Set: AUG-CC-PVTZ
    Blend: AUG-CC-PVTZ
  Basis Set: (AUG-CC-PVTZ AUX)
    Blend: AUG-CC-PVTZ-JKFIT
  @DF-UKS Final Energy: -1194.54938640568389
    Total Energy =                      -1194.5493864056841176
    Molecular point group: cs

    Geometry (in Angstrom), charge = 0, multiplicity = 1:

       Center              X                  Y                   Z               Mass
    ------------   -----------------  -----------------  -----------------  -----------------
         S            0.567609315371     0.348677194908     0.000000000000    31.972071174400
         S            0.567517584510    -1.558567067810     0.000000000000    31.972071174400
         S           -1.135126899882     1.209889872901     0.000000000000    31.972071174400

  Charge       = 0
  Multiplicity = 1
  Basis Set: AUG-CC-PVTZ
    Blend: AUG-CC-PVTZ
  Basis Set: (AUG-CC-PVTZ AUX)
    Blend: AUG-CC-PVTZ-JKFIT

    Orbital Energies [Eh]
    ---------------------

    Alpha Occupied:

       1Ap   -89.345714     2Ap   -89.237026     3Ap   -89.236951
       4Ap    -8.249020     5Ap    -8.150317     6Ap    -8.150218
       1App   -6.157887     7Ap    -6.157227     8Ap    -6.153009
       9Ap    -6.060324    10Ap    -6.060231     2App   -6.058106
       3App   -6.058006    11Ap    -6.051791    12Ap    -6.051693
      13Ap    -1.014587    14Ap    -0.864208    15Ap    -0.700781
      16Ap    -0.529681    17Ap    -0.515958     4App   -0.508701
       5App   -0.362208    18Ap    -0.359449    19Ap    -0.359359

    Alpha Virtual:

       6App   -0.090056    20Ap     0.025793    21Ap     0.035272
      22Ap     0.049790     7App    0.061264    23Ap     0.063585
      24Ap     0.079868     8App    0.087281    25Ap     0.089944
       9App    0.094653    26Ap     0.094892    27Ap     0.100434
      28Ap     0.123711    29Ap     0.172248    10App    0.185192
      30Ap     0.193866    11App    0.210154    31Ap     0.213246
      32Ap     0.256238    33Ap     0.273314    34Ap     0.275211
      35Ap     0.284385    12App    0.287449    13App    0.297769
      14App    0.337589    36Ap     0.350449    37Ap     0.353925
      15App    0.382281    38Ap     0.386334    39Ap     0.407483
      16App    0.440348    40Ap     0.477609    17App    0.507092
      41Ap     0.524575    42Ap     0.535872    43Ap     0.541327
      18App    0.541782    44Ap     0.549021    19App    0.559681
      20App    0.560686    45Ap     0.562660    46Ap     0.576801
      47Ap     0.602509    21App    0.624268    48Ap     0.635046
      49Ap     0.638781    22App    0.643556    50Ap     0.665695
      51Ap     0.681097    52Ap     0.700987    23App    0.709858
      24App    0.741119    53Ap     0.756210    25App    0.763764
      26App    0.809225    54Ap     0.809382    55Ap     0.811969
      27App    0.818846    56Ap     0.858473    57Ap     0.896736
      58Ap     0.898674    59Ap     0.988366    28App    0.994098
      29App    1.001799    60Ap     1.033697    30App    1.057132
      61Ap     1.064329    31App    1.133965    62Ap     1.145912
      63Ap     1.173800    64Ap     1.183590    32App    1.211531
      33App    1.224693    65Ap     1.228885    66Ap     1.315619
      67Ap     1.344511    68Ap     1.420356    69Ap     1.469673
      70Ap     1.762079    34App    1.764288    35App    1.794041
      71Ap     1.808169    72Ap     1.836329    36App    1.837265
      37App    1.847980    73Ap     1.850081    74Ap     1.881042
      38App    1.902125    75Ap     1.918740    76Ap     1.959500
      77Ap     1.961859    39App    1.972777    78Ap     1.983789
      40App    2.005044    79Ap     2.006215    41App    2.034897
      80Ap     2.038656    42App    2.045253    43App    2.070731
      81Ap     2.103203    82Ap     2.126570    44App    2.150740
      45App    2.166608    83Ap     2.180012    84Ap     2.199340
      46App    2.228295    85Ap     2.265533    86Ap     2.307141
      47App    2.307812    48App    2.317818    87Ap     2.327714
      49App    2.395536    88Ap     2.409950    89Ap     2.436031
      90Ap     2.511113    91Ap     2.593107    50App    2.626666
      51App    2.644524    92Ap     2.703287    93Ap     2.706315
      94Ap     2.779682    95Ap     3.596075    96Ap     3.757640
      97Ap     5.012478    98Ap     5.380034    99Ap     5.732212

    Beta Occupied:

       1Ap   -89.345714     2Ap   -89.237026     3Ap   -89.236951
       4Ap    -8.249020     5Ap    -8.150317     6Ap    -8.150218
       1App   -6.157887     7Ap    -6.157227     8Ap    -6.153009
       9Ap    -6.060324    10Ap    -6.060231     2App   -6.058106
       3App   -6.058006    11Ap    -6.051791    12Ap    -6.051693
      13Ap    -1.014587    14Ap    -0.864208    15Ap    -0.700781
      16Ap    -0.529681    17Ap    -0.515958     4App   -0.508701
       5App   -0.362208    18Ap    -0.359449    19Ap    -0.359359

    Beta Virtual:

       6App   -0.090056    20Ap     0.025793    21Ap     0.035272
      22Ap     0.049790     7App    0.061264    23Ap     0.063585
      24Ap     0.079868     8App    0.087281    25Ap     0.089944
       9App    0.094653    26Ap     0.094892    27Ap     0.100434
      28Ap     0.123711    29Ap     0.172248    10App    0.185192
      30Ap     0.193866    11App    0.210154    31Ap     0.213246
      32Ap     0.256238    33Ap     0.273314    34Ap     0.275211
      35Ap     0.284385    12App    0.287449    13App    0.297769
      14App    0.337589    36Ap     0.350449    37Ap     0.353925
      15App    0.382281    38Ap     0.386334    39Ap     0.407483
      16App    0.440348    40Ap     0.477609    17App    0.507092
      41Ap     0.524575    42Ap     0.535872    43Ap     0.541327
      18App    0.541782    44Ap     0.549021    19App    0.559681
      20App    0.560686    45Ap     0.562660    46Ap     0.576801
      47Ap     0.602509    21App    0.624268    48Ap     0.635046
      49Ap     0.638781    22App    0.643556    50Ap     0.665695
      51Ap     0.681097    52Ap     0.700987    23App    0.709858
      24App    0.741119    53Ap     0.756210    25App    0.763764
      26App    0.809225    54Ap     0.809382    55Ap     0.811969
      27App    0.818846    56Ap     0.858473    57Ap     0.896736
      58Ap     0.898674    59Ap     0.988366    28App    0.994098
      29App    1.001799    60Ap     1.033697    30App    1.057132
      61Ap     1.064329    31App    1.133965    62Ap     1.145912
      63Ap     1.173800    64Ap     1.183590    32App    1.211531
      33App    1.224693    65Ap     1.228885    66Ap     1.315619
      67Ap     1.344511    68Ap     1.420356    69Ap     1.469673
      70Ap     1.762079    34App    1.764288    35App    1.794041
      71Ap     1.808169    72Ap     1.836329    36App    1.837265
      37App    1.847980    73Ap     1.850081    74Ap     1.881042
      38App    1.902125    75Ap     1.918740    76Ap     1.959500
      77Ap     1.961859    39App    1.972777    78Ap     1.983789
      40App    2.005044    79Ap     2.006215    41App    2.034897
      80Ap     2.038656    42App    2.045253    43App    2.070731
      81Ap     2.103203    82Ap     2.126570    44App    2.150740
      45App    2.166608    83Ap     2.180012    84Ap     2.199340
      46App    2.228295    85Ap     2.265533    86Ap     2.307141
      47App    2.307812    48App    2.317818    87Ap     2.327714
      49App    2.395536    88Ap     2.409950    89Ap     2.436031
      90Ap     2.511113    91Ap     2.593107    50App    2.626666
      51App    2.644524    92Ap     2.703287    93Ap     2.706315
      94Ap     2.779682    95Ap     3.596075    96Ap     3.757640
      97Ap     5.012478    98Ap     5.380034    99Ap     5.732212

    Final Occupation by Irrep:
             Ap   App
    DOCC [    19,    5 ]
    SOCC [     0,    0 ]

  @DF-UKS Final Energy: -1194.54938640652222

   => Energetics <=

    Nuclear Repulsion Energy =            183.7055603301358815
    One-Electron Energy =               -2014.5474845038079366
    Two-Electron Energy =                 695.4924321653472816
    DFT Exchange-Correlation Energy =     -59.3976556818117345
    Empirical Dispersion Energy =           0.0000000000000000
    VV10 Nonlocal Energy =                  0.1977612836141629
    Total Energy =                      -1194.5493864065222169

  UHF NO Occupations:
  HONO-2 :   17 Ap 2.0000000
  HONO-1 :   18 Ap 2.0000000
  HONO-0 :   19 Ap 2.0000000
  LUNO+0 :    6App 0.0000000
  LUNO+1 :   20 Ap 0.0000000
  LUNO+2 :   21 Ap 0.0000000
  LUNO+3 :   22 Ap 0.0000000

Computation Completed

Properties will be evaluated at   0.000000,   0.000000,   0.000000 [a0]

Properties computed using the SCF density matrix

  Nuclear Dipole Moment: [e a0]
     X:     0.0000      Y:    -0.0000      Z:     0.0000

  Electronic Dipole Moment: [e a0]
     X:     0.1971      Y:     0.1191      Z:     0.0000

  Dipole Moment: [e a0]
     X:     0.1971      Y:     0.1191      Z:     0.0000     Total:     0.2303

  Dipole Moment: [D]
     X:     0.5011      Y:     0.3028      Z:     0.0000     Total:     0.5855

*** tstop() called on c2-18.compute.lan at Tue Feb  2 19:12:28 2021
Module time:
	user time   =     325.29 seconds =       5.42 minutes
	system time =       2.29 seconds =       0.04 minutes
	total time  =        327 seconds =       5.45 minutes
Total time:
	user time   =   15623.43 seconds =     260.39 minutes
	system time =     150.20 seconds =       2.50 minutes
	total time  =      16361 seconds =     272.68 minutes

         ----------------------------------------------------------
                                   FINDIF
                     R. A. King and Jonathon Misiewicz
         ---------------------------------------------------------

  Computing second-derivative from energies using projected,
  symmetry-adapted, cartesian coordinates.

  13 energies passed in, including the reference geometry.
    Using 3-point formula.
    Energy without displacement: -1194.5493868104
    Check energies below for precision!
    0: -1        :     -1194.5493866529
    0: 1         :     -1194.5493866497
    1: -1        :     -1194.5493865870
    1: 1         :     -1194.5493865866
    2: -1        :     -1194.5493867111
    2: 1         :     -1194.5493867090
    0: 1, 1: 1   :     -1194.5493865391
    0: -1, 1: -1 :     -1194.5493865418
    0: 1, 2: 1   :     -1194.5493864143
    0: -1, 2: -1 :     -1194.5493864128
    1: 1, 2: 1   :     -1194.5493864057
    1: -1, 2: -1 :     -1194.5493864065

-------------------------------------------------------------

  ==> Harmonic Vibrational Analysis <==

  non-mass-weighted Hessian:       Symmetric? True   Hermitian? True   Lin Dep Dim?  6 (0)
  projection of translations (True) and rotations (True) removed 6 degrees of freedom (6)
  total projector:                 Symmetric? True   Hermitian? True   Lin Dep Dim?  6 (6)
  mass-weighted Hessian:           Symmetric? True   Hermitian? True   Lin Dep Dim?  6 (0)
  pre-proj  low-frequency mode:    0.0000i [cm^-1]
  pre-proj  low-frequency mode:    0.0000i [cm^-1]
  pre-proj  low-frequency mode:    0.0000  [cm^-1]
  pre-proj  low-frequency mode:    0.0000  [cm^-1]
  pre-proj  low-frequency mode:    0.0000  [cm^-1]
  pre-proj  low-frequency mode:    0.0000  [cm^-1]
  pre-proj  all modes:['0.0000i' '0.0000i' '0.0000' '0.0000' '0.0000' '0.0000' '262.6973'
 '640.4469' '735.9440']
  projected mass-weighted Hessian: Symmetric? True   Hermitian? True   Lin Dep Dim?  6 (6)
  post-proj low-frequency mode:    0.0000i [cm^-1] (TR)
  post-proj low-frequency mode:    0.0000  [cm^-1] (TR)
  post-proj low-frequency mode:    0.0000  [cm^-1] (TR)
  post-proj low-frequency mode:    0.0000  [cm^-1] (TR)
  post-proj low-frequency mode:    0.0000  [cm^-1] (TR)
  post-proj low-frequency mode:    0.0000  [cm^-1] (TR)
  post-proj  all modes:['0.0000i' '0.0000' '0.0000' '0.0000' '0.0000' '0.0000' '262.6973'
 '640.4469' '735.9440']

  Vibration                       7                   8                   9
  Freq [cm^-1]                 262.6973            640.4469            735.9440
  Irrep                           Ap                  Ap                  Ap
  Reduced mass [u]             31.9721             31.9721             31.9721
  Force const [mDyne/A]         1.3000              7.7266             10.2026
  Turning point v=0 [a0]        0.1197              0.0767              0.0715
  RMS dev v=0 [a0 u^1/2]        0.4787              0.3066              0.2860
  Char temp [K]                377.9629            921.4605           1058.8596
  ----------------------------------------------------------------------------------
      1   S               -0.45 -0.28  0.00   -0.53 -0.32  0.00   -0.40  0.66 -0.00
      2   S                0.51 -0.32 -0.00    0.03  0.55 -0.00    0.00 -0.45 -0.00
      3   S               -0.06  0.60 -0.00    0.51 -0.23 -0.00    0.40 -0.20 -0.00

  ==> Thermochemistry Components <==

  Entropy, S
    Electronic S            0.000 [cal/(mol K)]        0.000 [J/(mol K)]       0.00000000 [mEh/K] (multiplicity = 1)
    Translational S        39.594 [cal/(mol K)]      165.660 [J/(mol K)]       0.06309659 [mEh/K] (mol. weight = 95.9162 [u], P = 101325.00 [Pa])
    Rotational S           24.947 [cal/(mol K)]      104.379 [J/(mol K)]       0.03975597 [mEh/K] (symmetry no. = 1)
    Vibrational S           2.295 [cal/(mol K)]        9.603 [J/(mol K)]       0.00365748 [mEh/K]
  Total S                  66.836 [cal/(mol K)]      279.642 [J/(mol K)]       0.10651003 [mEh/K]
  Correction S              0.000 [cal/(mol K)]        0.000 [J/(mol K)]       0.00000000 [mEh/K]

  Constant volume heat capacity, Cv
    Electronic Cv           0.000 [cal/(mol K)]        0.000 [J/(mol K)]       0.00000000 [mEh/K]
    Translational Cv        2.981 [cal/(mol K)]       12.472 [J/(mol K)]       0.00475022 [mEh/K]
    Rotational Cv           2.981 [cal/(mol K)]       12.472 [J/(mol K)]       0.00475022 [mEh/K]
    Vibrational Cv          3.451 [cal/(mol K)]       14.437 [J/(mol K)]       0.00549881 [mEh/K]
  Total Cv                  9.412 [cal/(mol K)]       39.381 [J/(mol K)]       0.01499925 [mEh/K]
  Correction Cv             0.000 [cal/(mol K)]        0.000 [J/(mol K)]       0.00000000 [mEh/K]

  Constant pressure heat capacity, Cp
    Electronic Cp           0.000 [cal/(mol K)]        0.000 [J/(mol K)]       0.00000000 [mEh/K]
    Translational Cp        4.968 [cal/(mol K)]       20.786 [J/(mol K)]       0.00791703 [mEh/K]
    Rotational Cp           2.981 [cal/(mol K)]       12.472 [J/(mol K)]       0.00475022 [mEh/K]
    Vibrational Cp          3.451 [cal/(mol K)]       14.437 [J/(mol K)]       0.00549881 [mEh/K]
  Total Cp                 11.399 [cal/(mol K)]       47.695 [J/(mol K)]       0.01816606 [mEh/K]
  Correction Cp             0.000 [cal/(mol K)]        0.000 [J/(mol K)]       0.00000000 [mEh/K]

  ==> Thermochemistry Energy Analysis <==

  Raw electronic energy, E0
  Total E0, Electronic energy at well bottom at 0 [K]                -1194.54938681 [Eh]

  Zero-point energy, ZPE_vib = Sum_i nu_i / 2
    Electronic ZPE          0.000 [kcal/mol]        0.000 [kJ/mol]       0.00000000 [Eh]
    Translational ZPE       0.000 [kcal/mol]        0.000 [kJ/mol]       0.00000000 [Eh]
    Rotational ZPE          0.000 [kcal/mol]        0.000 [kJ/mol]       0.00000000 [Eh]
    Vibrational ZPE         2.343 [kcal/mol]        9.804 [kJ/mol]       0.00373412 [Eh]         819.544 [cm^-1]
  Correction ZPE            2.343 [kcal/mol]        9.804 [kJ/mol]       0.00373412 [Eh]         819.544 [cm^-1]
  Total ZPE, Electronic energy at 0 [K]                              -1194.54565269 [Eh]

  Thermal Energy, E (includes ZPE)
    Electronic E            0.000 [kcal/mol]        0.000 [kJ/mol]       0.00000000 [Eh]
    Translational E         0.889 [kcal/mol]        3.718 [kJ/mol]       0.00141628 [Eh]
    Rotational E            0.889 [kcal/mol]        3.718 [kJ/mol]       0.00141628 [Eh]
    Vibrational E           2.787 [kcal/mol]       11.660 [kJ/mol]       0.00444106 [Eh]
  Correction E              4.564 [kcal/mol]       19.097 [kJ/mol]       0.00727362 [Eh]
  Total E, Electronic energy at  298.15 [K]                          -1194.54211320 [Eh]

  Enthalpy, H_trans = E_trans + k_B * T
    Electronic H            0.000 [kcal/mol]        0.000 [kJ/mol]       0.00000000 [Eh]
    Translational H         1.481 [kcal/mol]        6.197 [kJ/mol]       0.00236046 [Eh]
    Rotational H            0.889 [kcal/mol]        3.718 [kJ/mol]       0.00141628 [Eh]
    Vibrational H           2.787 [kcal/mol]       11.660 [kJ/mol]       0.00444106 [Eh]
  Correction H              5.157 [kcal/mol]       21.576 [kJ/mol]       0.00821780 [Eh]
  Total H, Enthalpy at  298.15 [K]                                   -1194.54116901 [Eh]

  Gibbs free energy, G = H - T * S
    Electronic G            0.000 [kcal/mol]        0.000 [kJ/mol]       0.00000000 [Eh]
    Translational G       -10.324 [kcal/mol]      -43.194 [kJ/mol]      -0.01645179 [Eh]
    Rotational G           -6.549 [kcal/mol]      -27.402 [kJ/mol]      -0.01043697 [Eh]
    Vibrational G           2.103 [kcal/mol]        8.797 [kJ/mol]       0.00335058 [Eh]
  Correction G            -14.770 [kcal/mol]      -61.799 [kJ/mol]      -0.02353817 [Eh]
  Total G, Free enthalpy at  298.15 [K]                              -1194.57292498 [Eh]

    Psi4 stopped on: Tuesday, 02 February 2021 07:12PM
    Psi4 wall time for execution: 4:32:42.73

*** Psi4 exiting successfully. Buy a developer a beer!
