                               Psi4 1.3.2 release

  ==> Input File <==

--------------------------------------------------------------------------
memory 46 GB

basis jerome {
assign pot
assign S aug-cc-pV(T+d)Z

[pot]
spherical
****
 K  0
 S 23 1.00
    2.709796E+07     4.136110E-07
    3.592856E+06     3.860330E-06
    7.222638E+05     2.394640E-05
    1.833976E+05     1.157540E-04
    5.464812E+04     4.697010E-04
    1.830913E+04     1.673720E-03
    6.712501E+03     5.370450E-03
    2.643719E+03     1.572510E-02
    1.103835E+03     4.193360E-02
    4.836777E+02     9.987620E-02
    2.206245E+02     2.019680E-01
    1.041117E+02     3.146270E-01
    5.052749E+01     3.107540E-01
    2.485247E+01     1.421920E-01
    1.128102E+01     1.658490E-02
    5.510166E+00    -2.759760E-04
    2.706914E+00     5.158310E-04
    1.122807E+00    -2.268950E-04
    5.236385E-01     6.652980E-05
    2.355180E-01    -3.685150E-05
    4.157977E-02     1.925250E-05
    2.555456E-02    -2.108420E-05
    1.471495E-02     7.044600E-06
 S 23 1.00
    2.709796E+07    -1.188290E-07
    3.592856E+06    -1.108550E-06
    7.222638E+05    -6.881230E-06
    1.833976E+05    -3.324150E-05
    5.464812E+04    -1.350850E-04
    1.830913E+04    -4.814570E-04
    6.712501E+03    -1.552620E-03
    2.643719E+03    -4.578330E-03
    1.103835E+03    -1.247930E-02
    4.836777E+02    -3.094650E-02
    2.206245E+02    -6.855530E-02
    1.041117E+02    -1.268300E-01
    5.052749E+01    -1.745020E-01
    2.485247E+01    -9.089560E-02
    1.128102E+01     2.506960E-01
    5.510166E+00     5.589630E-01
    2.706914E+00     3.284370E-01
    1.122807E+00     3.392170E-02
    5.236385E-01    -2.100280E-03
    2.355180E-01     1.383960E-03
    4.157977E-02    -5.315630E-04
    2.555456E-02     5.770310E-04
    1.471495E-02    -1.931440E-04
 S 23 1.00
    2.709796E+07     3.917470E-08
    3.592856E+06     3.650640E-07
    7.222638E+05     2.269460E-06
    1.833976E+05     1.094290E-05
    5.464812E+04     4.457360E-05
    1.830913E+04     1.584480E-04
    6.712501E+03     5.128440E-04
    2.643719E+03     1.507690E-03
    1.103835E+03     4.136940E-03
    4.836777E+02     1.024690E-02
    2.206245E+02     2.306520E-02
    1.041117E+02     4.308900E-02
    5.052749E+01     6.238120E-02
    2.485247E+01     3.270420E-02
    1.128102E+01    -1.021980E-01
    5.510166E+00    -3.317970E-01
    2.706914E+00    -3.030100E-01
    1.122807E+00     3.098410E-01
    5.236385E-01     6.732700E-01
    2.355180E-01     2.812200E-01
    4.157977E-02     9.376240E-03
    2.555456E-02    -6.955720E-03
    1.471495E-02     2.069460E-03
 S 23 1.00
    2.709796E+07    -7.564440E-09
    3.592856E+06    -7.055390E-08
    7.222638E+05    -4.380820E-07
    1.833976E+05    -2.115540E-06
    5.464812E+04    -8.601300E-06
    1.830913E+04    -3.064440E-05
    6.712501E+03    -9.892550E-05
    2.643719E+03    -2.917760E-04
    1.103835E+03    -7.977860E-04
    4.836777E+02    -1.985820E-03
    2.206245E+02    -4.449740E-03
    1.041117E+02    -8.390260E-03
    5.052749E+01    -1.206000E-02
    2.485247E+01    -6.568410E-03
    1.128102E+01     2.061430E-02
    5.510166E+00     6.770060E-02
    2.706914E+00     6.639570E-02
    1.122807E+00    -8.237770E-02
    5.236385E-01    -1.727150E-01
    2.355180E-01    -2.310290E-01
    4.157977E-02     5.090040E-01
    2.555456E-02     3.472180E-01
    1.471495E-02     2.809620E-01
 S 1 1.00
    2.555456E-02     1.000000E+00
 S 1 1.00
    1.471495E-02     1.000000E+00
 S 1 1.00
    8.470000E-03     1.000000E+00
 P 16 1.00
    9.533309E+03     4.212010E-05
    1.852081E+03     5.068300E-04
    5.464251E+02     3.311700E-03
    1.966947E+02     1.536840E-02
    7.964112E+01     5.457060E-02
    3.488324E+01     1.473880E-01
    1.604479E+01     2.879240E-01
    7.575632E+00     3.750810E-01
    3.672548E+00     2.545160E-01
    1.771130E+00     6.059280E-02
    8.515199E-01     2.508370E-03
    4.016017E-01     6.688870E-04
    1.851933E-01    -1.486150E-04
    5.523390E-02     4.936010E-05
    2.431085E-02    -3.513850E-05
    1.080339E-02     1.171450E-05
 P 16 1.00
    9.533309E+03    -1.280760E-05
    1.852081E+03    -1.547870E-04
    5.464251E+02    -1.010940E-03
    1.966947E+02    -4.738330E-03
    7.964112E+01    -1.703260E-02
    3.488324E+01    -4.754130E-02
    1.604479E+01    -9.560810E-02
    7.575632E+00    -1.337000E-01
    3.672548E+00    -7.425060E-02
    1.771130E+00     1.646810E-01
    8.515199E-01     4.057630E-01
    4.016017E-01     4.113600E-01
    1.851933E-01     1.734240E-01
    5.523390E-02     1.253640E-02
    2.431085E-02    -3.267140E-03
    1.080339E-02     1.039680E-03
 P 16 1.00
    9.533309E+03     1.764010E-06
    1.852081E+03     2.124880E-05
    5.464251E+02     1.392500E-04
    1.966947E+02     6.509140E-04
    7.964112E+01     2.349940E-03
    3.488324E+01     6.547470E-03
    1.604479E+01     1.326270E-02
    7.575632E+00     1.848520E-02
    3.672548E+00     1.025530E-02
    1.771130E+00    -2.652150E-02
    8.515199E-01    -6.086460E-02
    4.016017E-01    -7.474220E-02
    1.851933E-01    -4.870880E-02
    5.523390E-02     2.245720E-01
    2.431085E-02     5.839280E-01
    1.080339E-02     2.980960E-01
 P 1 1.00
    5.523390E-02     1.000000E+00
 P 1 1.00
    1.080339E-02     1.000000E+00
 P 1 1.00
    4.800000E-03     1.000000E+00
 D 6 1.00
    5.670903E+00     8.285900E-03
    1.459042E+00     2.332530E-02
    5.431827E-01     4.878080E-02
    1.346875E-01     7.349020E-02
    5.516013E-02     2.387630E-01
    1.501876E-02     8.253200E-01
 D 1 1.00
    5.516013E-02     1.000000E+00
 D 1 1.00
    1.501876E-02     1.000000E+00
 D 1 1.00
    6.010000E-03     1.000000E+00
 F 1 1.00
    8.493750E-02     1.000000E+00
 F 1 1.00
    3.398000E-02     1.000000E+00
 ****
}

molecule  {
0 2
S   -1.039176528661    0.999403855827    0.000000000000
S   -1.038713294783   -0.999221018473    0.000000000000
K    1.705033923066   -0.000150029076    0.000000000000
}
set {
basis jerome
reference uhf
g_convergence gau_verytight
e_convergence 10
scf_type pk
freeze_core true
geom_maxiter 100
}

set ccenergy {
e_convergence 10
r_convergence 10
}

e = energy('ccsd(t)')

print_out('Stephenergy {}'.format(e))

--------------------------------------------------------------------------

    Molecular point group: cs

    Geometry (in Angstrom), charge = 0, multiplicity = 2:

       Center              X                  Y                   Z               Mass
    ------------   -----------------  -----------------  -----------------  -----------------
         S           -1.039176528661     0.999403855827     0.000000000000    31.972071174400
         S           -1.038713294783    -0.999221018473     0.000000000000    31.972071174400
         K            1.705033923066    -0.000150029076     0.000000000000    38.963706486400

  Charge       = 0
  Multiplicity = 2
  Basis Set: JEROME
    Blend: AUG-CC-PV(T+D)Z + POT

    Orbital Energies [Eh]
    ---------------------

    Alpha Occupied:

       1Ap  -133.525763     2Ap   -91.910555     3Ap   -91.910530
       4Ap   -14.483444     1App  -11.513286     5Ap   -11.513182
       6Ap   -11.513141     7Ap    -8.910221     8Ap    -8.909993
       2App   -6.599056     3App   -6.599017     9Ap    -6.589402
      10Ap    -6.588841    11Ap    -6.587570    12Ap    -6.587530
      13Ap    -1.746154    14Ap    -0.992979     4App   -0.955923
      15Ap    -0.954909    16Ap    -0.941188    17Ap    -0.761721
       5App   -0.435139    18Ap    -0.424769    19Ap    -0.406855
       6App   -0.299940    20Ap    -0.268987

    Alpha Virtual:

      21Ap    -0.012628     7App    0.004340    22Ap     0.004727
      23Ap     0.008283    24Ap     0.017556     8App    0.017741
      25Ap     0.018369     9App    0.021493    26Ap     0.021497
      10App    0.023963    27Ap     0.024623    28Ap     0.027535
      29Ap     0.036634    30Ap     0.054140    11App    0.054353
      31Ap     0.056180    12App    0.059906    32Ap     0.063090
      13App    0.079343    33Ap     0.079509    34Ap     0.087552
      35Ap     0.110544    36Ap     0.112478    14App    0.128632
      37Ap     0.128636    38Ap     0.129098    15App    0.130251
      39Ap     0.133008    16App    0.134834    40Ap     0.135658
      41Ap     0.153261    42Ap     0.156656    17App    0.157673
      18App    0.165920    43Ap     0.170450    44Ap     0.181527
      19App    0.186179    20App    0.202095    45Ap     0.213826
      46Ap     0.214785    47Ap     0.232065    21App    0.243239
      48Ap     0.270502    49Ap     0.278507    50Ap     0.312646
      51Ap     0.318359    22App    0.332886    52Ap     0.353021
      53Ap     0.355752    54Ap     0.372873    23App    0.388884
      24App    0.391775    55Ap     0.393674    56Ap     0.393835
      25App    0.399154    26App    0.402370    27App    0.411011
      57Ap     0.421079    58Ap     0.438429    59Ap     0.445572
      28App    0.451163    60Ap     0.455062    29App    0.467835
      30App    0.476358    61Ap     0.488696    62Ap     0.492291
      63Ap     0.525410    64Ap     0.543670    31App    0.685835
      32App    0.695858    65Ap     0.696130    66Ap     0.700162
      33App    0.714214    67Ap     0.726761    68Ap     0.771632
      34App    0.796875    69Ap     0.805722    70Ap     0.828885
      71Ap     0.838144    35App    0.850252    72Ap     0.858662
      36App    0.895041    37App    0.916839    73Ap     0.924081
      74Ap     0.971799    75Ap     0.974872    76Ap     0.991530
      38App    1.027887    77Ap     1.039700    39App    1.058613
      78Ap     1.089632    79Ap     1.158740    40App    1.167059
      41App    1.206055    80Ap     1.210652    81Ap     1.212245
      82Ap     1.252291    42App    1.364186    83Ap     1.397174
      84Ap     1.487662    85Ap     1.679567    43App    2.023922
      86Ap     2.037804    87Ap     2.057308    44App    2.066534
      45App    2.077918    88Ap     2.095713    89Ap     2.108249
      46App    2.205862    90Ap     2.266582    47App    2.278594
      91Ap     2.302579    92Ap     2.304809    93Ap     2.348243
      48App    2.353150    49App    2.417488    94Ap     2.430038
      95Ap     2.460585    96Ap     2.477312    50App    2.487593
      51App    2.518597    52App    2.589520    97Ap     2.602507
      53App    2.607244    98Ap     2.609042    99Ap     2.690224
     100Ap     2.735363   101Ap     2.840313    54App    2.913609
     102Ap     2.938986   103Ap     4.052094   104Ap     5.115592
     105Ap     5.782311    55App    7.410932   106Ap     7.419860
     107Ap     7.431731    56App    7.434206    57App    7.438538
     108Ap     7.459770    58App    7.517943   109Ap     7.547876
     110Ap     7.577925   111Ap     7.650387

    Beta Occupied:

       1Ap  -133.525804     2Ap   -91.905098     3Ap   -91.905076
       4Ap   -14.483500     1App  -11.513357     5Ap   -11.513238
       6Ap   -11.513202     7Ap    -8.904297     8Ap    -8.904027
       9Ap    -6.586800    10Ap    -6.586222    11Ap    -6.584220
      12Ap    -6.584182     2App   -6.575032     3App   -6.574975
      13Ap    -1.746454    14Ap    -0.973427     4App   -0.956228
      15Ap    -0.955041    16Ap    -0.925179    17Ap    -0.691966
      18Ap    -0.407184    19Ap    -0.398889     5App   -0.316655
      20Ap    -0.256533

    Beta Virtual:

      21Ap    -0.012617     6App    0.004368    22Ap     0.004742
      23Ap     0.008283     7App    0.017541    24Ap     0.017557
      25Ap     0.018369     8App    0.021496    26Ap     0.021510
       9App    0.024101    27Ap     0.024710    28Ap     0.027541
      29Ap     0.036584    10App    0.046763    30Ap     0.054136
      31Ap     0.056456    11App    0.060305    32Ap     0.063075
      12App    0.065314    13App    0.079671    33Ap     0.079870
      34Ap     0.087435    35Ap     0.110316    36Ap     0.113782
      14App    0.128740    37Ap     0.129008    38Ap     0.129107
      15App    0.130453    39Ap     0.134017    40Ap     0.135854
      16App    0.136283    41Ap     0.153005    42Ap     0.157238
      17App    0.169212    43Ap     0.171439    18App    0.174420
      44Ap     0.181123    19App    0.187579    20App    0.204520
      45Ap     0.214805    46Ap     0.218795    47Ap     0.235383
      21App    0.244391    48Ap     0.272372    49Ap     0.278904
      50Ap     0.315622    51Ap     0.324422    52Ap     0.353067
      22App    0.355572    53Ap     0.360521    54Ap     0.379043
      55Ap     0.394791    56Ap     0.394804    23App    0.395530
      24App    0.399365    25App    0.400883    26App    0.406450
      27App    0.415110    57Ap     0.422017    58Ap     0.439619
      59Ap     0.452454    60Ap     0.455291    28App    0.466451
      29App    0.472792    30App    0.484852    61Ap     0.491696
      62Ap     0.496615    63Ap     0.526765    64Ap     0.545617
      31App    0.696547    65Ap     0.697481    66Ap     0.713096
      67Ap     0.733112    32App    0.739781    33App    0.744355
      68Ap     0.774942    69Ap     0.810022    34App    0.812605
      70Ap     0.842174    71Ap     0.850142    35App    0.883685
      72Ap     0.884598    36App    0.923967    37App    0.926998
      73Ap     0.931321    74Ap     0.975920    75Ap     0.978638
      76Ap     1.002263    38App    1.040091    77Ap     1.049695
      39App    1.069853    78Ap     1.096480    79Ap     1.159527
      40App    1.179336    80Ap     1.211220    41App    1.212845
      81Ap     1.222240    82Ap     1.254597    42App    1.381020
      83Ap     1.399259    84Ap     1.502073    85Ap     1.693900
      43App    2.037822    86Ap     2.050691    87Ap     2.071356
      44App    2.081240    45App    2.093456    88Ap     2.098280
      89Ap     2.111591    46App    2.228778    90Ap     2.271812
      47App    2.296067    91Ap     2.304420    92Ap     2.306927
      93Ap     2.359595    48App    2.365051    94Ap     2.444253
      49App    2.445968    95Ap     2.469311    96Ap     2.499328
      50App    2.509885    51App    2.547566    52App    2.609202
      97Ap     2.613518    98Ap     2.619044    53App    2.626693
      99Ap     2.694813   100Ap     2.739957   101Ap     2.845977
      54App    2.934391   102Ap     2.941204   103Ap     4.055110
     104Ap     5.126610   105Ap     5.792453    55App    7.416887
     106Ap     7.425874   107Ap     7.438033    56App    7.440589
      57App    7.444491   108Ap     7.460940    58App    7.523801
     109Ap     7.548678   110Ap     7.579552   111Ap     7.652595

    Final Occupation by Irrep:
             Ap   App
    DOCC [    20,    5 ]
    SOCC [     0,    1 ]

  @UHF Final Energy: -1394.32212702750166

   => Energetics <=

    Nuclear Repulsion Energy =            177.9555012300937449
    One-Electron Energy =               -2281.3385752257850072
    Two-Electron Energy =                 709.0609469681894552
    Total Energy =                      -1394.3221270275016650

  UHF NO Occupations:
  HONO-2 :   20 Ap 1.9974695
  HONO-1 :    5App 1.9882196
  HONO-0 :    6App 1.0000000
  LUNO+0 :    7App 0.0117804
  LUNO+1 :   21 Ap 0.0025305
  LUNO+2 :   22 Ap 0.0022748
  LUNO+3 :   23 Ap 0.0002549

Computation Completed

Properties will be evaluated at   0.000000,   0.000000,   0.000000 [a0]

Properties computed using the SCF density matrix

  Nuclear Dipole Moment: [e a0]
     X:    -1.6074      Y:     0.0001      Z:     0.0000

  Electronic Dipole Moment: [e a0]
     X:     5.5725      Y:    -0.0003      Z:     0.0000

  Dipole Moment: [e a0]
     X:     3.9651      Y:    -0.0001      Z:     0.0000     Total:     3.9651

  Dipole Moment: [D]
     X:    10.0783      Y:    -0.0003      Z:     0.0000     Total:    10.0783

*** tstop() called on d3-2.compute.lan at Fri Mar  5 13:41:18 2021
Module time:
	user time   =     257.79 seconds =       4.30 minutes
	system time =       3.71 seconds =       0.06 minutes
	total time  =         67 seconds =       1.12 minutes
Total time:
	user time   =     257.79 seconds =       4.30 minutes
	system time =       3.71 seconds =       0.06 minutes
	total time  =         67 seconds =       1.12 minutes
 MINTS: Wrapper to libmints.
   by Justin Turney

   Calculation information:
      Number of threads:                12
      Number of atoms:                   3
      Number of AO shells:              53
      Number of SO shells:              53
      Number of primitives:            287
      Number of atomic orbitals:       199
      Number of basis functions:       169

      Number of irreps:                  2
      Integral cutoff                 0.00e+00
      Number of functions per irrep: [ 111   58 ]

 OEINTS: Overlap, kinetic, potential, dipole, and quadrupole integrals
         stored in file 35.

      Computing two-electron integrals...done
      Computed 51030145 non-zero two-electron integrals.
        Stored in file 33.

*** tstart() called on d3-2.compute.lan
*** at Fri Mar  5 13:43:27 2021

	Wfn Parameters:
	--------------------
	Wavefunction         = CCSD_T
	Number of irreps     = 2
	Number of MOs        = 169
	Number of active MOs = 150
	AO-Basis             = NONE
	Semicanonical        = false
	Reference            = UHF
	Print Level          = 1

	IRREP	# MOs	# FZDC	# DOCC	# SOCC	# VIRT	# FZVR
	-----	-----	------	------	------	------	------
	 Ap	   111	    15	    5	    0	    91	    0
	 App	   58	    4	    1	    1	    52	    0
	Transforming integrals...
	IWL integrals will be deleted.
	(OO|OO)...
	Presorting SO-basis two-electron integrals.
	Sorting File: SO Ints (nn|nn) nbuckets = 1
	Transforming the one-electron integrals and constructing Fock matrices
	Starting AA/AB first half-transformation.
	Sorting AA/AB half-transformed integrals.
	Starting BB first half-transformation.
	Sorting BB half-transformed integrals.
	First half integral transformation complete.
	Starting AA second half-transformation.
	Starting AB second half-transformation.
	Starting BB second half-transformation.
	Two-electron integral transformation complete.
	(OO|OV)...
	Starting AA second half-transformation.
	Starting AB second half-transformation.
	Starting BB second half-transformation.
	Two-electron integral transformation complete.
	(OO|VV)...
	Starting AA second half-transformation.
	Starting AB second half-transformation.
	Starting BB second half-transformation.
	Two-electron integral transformation complete.
	(OV|OO)...
	Starting AA/AB first half-transformation.
	Sorting AA/AB half-transformed integrals.
	Starting BB first half-transformation.
	Sorting BB half-transformed integrals.
	First half integral transformation complete.
	Starting AA second half-transformation.
	Starting AB second half-transformation.
	Starting BB second half-transformation.
	Two-electron integral transformation complete.
	(OV|OV)...
	Starting AA second half-transformation.
	Starting AB second half-transformation.
	Starting BB second half-transformation.
	Two-electron integral transformation complete.
	(OV|VV)...
	Starting AA second half-transformation.
	Starting AB second half-transformation.
	Starting BB second half-transformation.
	Two-electron integral transformation complete.
	(VV|OO)...
	Starting AA/AB first half-transformation.
	Sorting AA/AB half-transformed integrals.
	Starting BB first half-transformation.
	Sorting BB half-transformed integrals.
	First half integral transformation complete.
	Starting AA second half-transformation.
	Starting AB second half-transformation.
	Starting BB second half-transformation.
	Two-electron integral transformation complete.
	(VV|OV)...
	Starting AA second half-transformation.
	Starting AB second half-transformation.
	Starting BB second half-transformation.
	Two-electron integral transformation complete.
	(VV|VV)...
	Starting AA second half-transformation.
	Starting AB second half-transformation.
	Starting BB second half-transformation.
	Two-electron integral transformation complete.
	Frozen core energy     =  -1542.41324198500274

	Size of irrep 0 of <AB|CD> integrals:     29.387 (MW) /    235.098 (MB)
	Size of irrep 1 of <AB|CD> integrals:     22.392 (MW) /    179.135 (MB)
	Total:                                    51.779 (MW) /    414.233 (MB)

	Size of irrep 0 of <ab|cd> integrals:     29.954 (MW) /    239.630 (MB)
	Size of irrep 1 of <ab|cd> integrals:     23.261 (MW) /    186.091 (MB)
	Total:                                    53.215 (MW) /    425.720 (MB)

	Size of irrep 0 of <Ab|Cd> integrals:    121.815 (MW) /    974.523 (MB)
	Size of irrep 1 of <Ab|Cd> integrals:     91.298 (MW) /    730.384 (MB)
	Total:                                   213.113 (MW) /   1704.907 (MB)

	Size of irrep 0 of <IA|BC> integrals:      6.141 (MW) /     49.125 (MB)
	Size of irrep 1 of <IA|BC> integrals:      4.183 (MW) /     33.465 (MB)
	Total:                                    10.324 (MW) /     82.590 (MB)

	Size of irrep 0 of <ia|bc> integrals:      5.634 (MW) /     45.070 (MB)
	Size of irrep 1 of <ia|bc> integrals:      3.434 (MW) /     27.472 (MB)
	Total:                                     9.068 (MW) /     72.542 (MB)

	Size of irrep 0 of <Ia|Bc> integrals:      6.192 (MW) /     49.534 (MB)
	Size of irrep 1 of <Ia|Bc> integrals:      4.271 (MW) /     34.169 (MB)
	Total:                                    10.463 (MW) /     83.703 (MB)

	Size of irrep 0 of <iA|bC> integrals:      5.596 (MW) /     44.766 (MB)
	Size of irrep 1 of <iA|bC> integrals:      3.354 (MW) /     26.830 (MB)
	Total:                                     8.950 (MW) /     71.597 (MB)

	Size of irrep 0 of tIjAb amplitudes:       0.298 (MW) /      2.384 (MB)
	Size of irrep 1 of tIjAb amplitudes:       0.143 (MW) /      1.147 (MB)
	Total:                                     0.441 (MW) /      3.531 (MB)

	Nuclear Rep. energy          =    177.95550123009374
	SCF energy                   =  -1394.32212702750166
	One-electron energy          =    -53.19376720642848
	Two-electron (AA) energy     =      5.67027112210536
	Two-electron (BB) energy     =      4.20232571004349
	Two-electron (AB) energy     =     13.45678410166065
	Two-electron energy          =     23.32938093380949
	Reference energy             =  -1394.32212702752804

*** tstop() called on d3-2.compute.lan at Fri Mar  5 13:45:38 2021
Module time:
	user time   =     397.33 seconds =       6.62 minutes
	system time =      31.84 seconds =       0.53 minutes
	total time  =        131 seconds =       2.18 minutes
Total time:
	user time   =     786.11 seconds =      13.10 minutes
	system time =      37.41 seconds =       0.62 minutes
	total time  =        327 seconds =       5.45 minutes
            **************************
            *                        *
            *        CCENERGY        *
            *                        *
            **************************

    Nuclear Rep. energy (wfn)     =  177.955501230093745
    SCF energy          (wfn)     = -1394.322127027501665
    Reference energy    (file100) = -1394.322127027528040

    Input parameters:
    -----------------
    Wave function   =     CCSD_T
    Reference wfn   =     UHF
    Brueckner       =     No
    Memory (Mbytes) =     46000.0
    Maxiter         =     50
    R_Convergence   =     1.0e-10
    E_Convergence   =     1.0e-10
    Restart         =     Yes
    DIIS            =     Yes
    AO Basis        =     NONE
    ABCD            =     NEW
    Cache Level     =     2
    Cache Type      =     LRU
    Print Level     =     1
    Num. of threads =     12
    # Amps to Print =     10
    Print MP2 Amps? =     No
    Analyze T2 Amps =     No
    Print Pair Ener =     No
    Local CC        =     No
    SCS-MP2         =     False
    SCSN-MP2        =     False
    SCS-CCSD        =     False

MP2 correlation energy -0.3148329953042004
                Solving CC Amplitude Equations
                ------------------------------
  Iter             Energy              RMS        T1Diag      D1Diag    New D1Diag    D2Diag
  ----     ---------------------    ---------   ----------  ----------  ----------   --------
     0        -0.314832995304200    0.000e+00    0.000000    0.000000    0.000000    0.000000
     1        -0.324959013150178    7.522e-02    0.015088    0.000000    0.000000    0.000000
     2        -0.333704929828147    2.319e-02    0.017697    0.000000    0.000000    0.000000
     3        -0.335284091090671    1.064e-02    0.020794    0.000000    0.000000    0.000000
     4        -0.335200264840725    2.760e-03    0.021647    0.000000    0.000000    0.000000
     5        -0.335180883336171    1.009e-03    0.021832    0.000000    0.000000    0.000000
     6        -0.335176599478534    4.199e-04    0.021885    0.000000    0.000000    0.000000
     7        -0.335174482410683    1.998e-04    0.021898    0.000000    0.000000    0.000000
     8        -0.335175521733168    1.040e-04    0.021900    0.000000    0.000000    0.000000
     9        -0.335177275366698    5.597e-05    0.021901    0.000000    0.000000    0.000000
    10        -0.335176348699008    2.788e-05    0.021901    0.000000    0.000000    0.000000
    11        -0.335176339336808    1.127e-05    0.021901    0.000000    0.000000    0.000000
    12        -0.335176174594987    5.231e-06    0.021901    0.000000    0.000000    0.000000
    13        -0.335176124514746    2.592e-06    0.021901    0.000000    0.000000    0.000000
    14        -0.335176135964982    1.411e-06    0.021901    0.000000    0.000000    0.000000
    15        -0.335176139943380    8.286e-07    0.021901    0.000000    0.000000    0.000000
    16        -0.335176140134481    4.107e-07    0.021901    0.000000    0.000000    0.000000

      * MP2 total energy                      = -1394.636960022832227
      * CCSD total energy                     = -1394.657303167789223
      * CCSD(T) total energy                     = -1394.676617693565049
*** Psi4 exiting successfully. Buy a developer a beer!
