                               Psi4 1.4a2.dev191

  ==> Input File <==

--------------------------------------------------------------------------
memory 10 GB

molecule  {
0 3
S
S 1 r1
r1 = 2.0
}

set {
reference uks
basis aug-cc-pvtz
g_convergence gau_verytight
dft_spherical_points 590
dft_radial_points 99
}

optimize('wb97x-d')
frequencies('wb97x-d')

--------------------------------------------------------------------------

    Molecular point group: d2h
  Charge       = 0
  Multiplicity = 3
  Basis Set: AUG-CC-PVTZ
    Blend: AUG-CC-PVTZ
  Basis Set: (AUG-CC-PVTZ AUX)
    Blend: AUG-CC-PVTZ-JKFIT
  @DF-UKS Final Energy:  -796.38671350744835
    Total Energy =                       -796.3867135074484622
    Molecular point group: d2h
  Basis Set: AUG-CC-PVTZ
    Blend: AUG-CC-PVTZ
  Basis Set: (AUG-CC-PVTZ AUX)
    Blend: AUG-CC-PVTZ-JKFIT
  Basis Set: AUG-CC-PVTZ
    Blend: AUG-CC-PVTZ
  Basis Set: (AUG-CC-PVTZ AUX)
    Blend: AUG-CC-PVTZ-JKFIT
  @DF-UKS Final Energy:  -796.39213107161720
    Total Energy =                       -796.3921310716170865
  Basis Set: AUG-CC-PVTZ
    Blend: AUG-CC-PVTZ
  Basis Set: (AUG-CC-PVTZ AUX)
    Blend: AUG-CC-PVTZ-JKFIT
  Basis Set: AUG-CC-PVTZ
    Blend: AUG-CC-PVTZ
  @DF-UKS Final Energy:  -796.39251876658273
    Total Energy =                       -796.3925187665826115
  @DF-UKS Final Energy:  -796.39255975336755
    Total Energy =                       -796.3925597533675500
  @DF-UKS Final Energy:  -796.39256268317695
    Total Energy =                       -796.3925626831770614
  @DF-UKS Final Energy:  -796.39256274082049
    Total Energy =                       -796.3925627408206083
  @DF-UKS Final Energy:  -796.39256274184254
    Total Energy =                       -796.3925627418426529
  **** Optimization is complete! (in 7 steps) ****
    Final optimized geometry and variables:
  @DF-UKS Final Energy:  -796.39256274184265
    Total Energy =                       -796.3925627418426529
  @DF-UKS Final Energy:  -796.39256274184265
    Total Energy =                       -796.3925627418426529
  Basis Set: (AUG-CC-PVTZ AUX)
    Blend: AUG-CC-PVTZ-JKFIT
  Basis Set: AUG-CC-PVTZ
    Blend: AUG-CC-PVTZ
  Basis Set: (AUG-CC-PVTZ AUX)
    Blend: AUG-CC-PVTZ-JKFIT
  @DF-UKS Final Energy:  -796.39256262809499
    Total Energy =                       -796.3925626280952201
  Basis Set: AUG-CC-PVTZ
    Blend: AUG-CC-PVTZ
  Basis Set: (AUG-CC-PVTZ AUX)
    Blend: AUG-CC-PVTZ-JKFIT
    Molecular point group: d2h
  Charge       = 0
  Multiplicity = 3
  Basis Set: AUG-CC-PVTZ
    Blend: AUG-CC-PVTZ
  Basis Set: (AUG-CC-PVTZ AUX)
    Blend: AUG-CC-PVTZ-JKFIT

    Orbital Energies [Eh]
    ---------------------

    Alpha Occupied:

       1B1u  -89.110762     1Ag   -89.110756     2Ag    -8.117767
       2B1u   -8.117576     1B2u   -6.065176     1B3u   -6.065176
       1B3g   -6.065117     1B2g   -6.065117     3Ag    -6.064521
       3B1u   -6.063708     4Ag    -0.943859     4B1u   -0.731389
       5Ag    -0.484203     2B2u   -0.468203     2B3u   -0.468203
       2B3g   -0.327407     2B2g   -0.327407

    Alpha Virtual:

       5B1u    0.039639     6Ag     0.085637     3B3u    0.091526
       3B2u    0.091526     6B1u    0.094560     7Ag     0.102710
       3B3g    0.115869     3B2g    0.115869     8Ag     0.188315
       1B1g    0.188316     7B1u    0.209784     4B2u    0.237533
       4B3u    0.237533     9Ag     0.279577     8B1u    0.301389
       1Au     0.301390     4B3g    0.373201     4B2g    0.373201
       9B1u    0.378107     5B2u    0.450736     5B3u    0.450736
       6B2u    0.549455     6B3u    0.549455    10Ag     0.555606
      10B1u    0.560282    11Ag     0.562906     2B1g    0.562909
      12Ag     0.568186     5B3g    0.578476     5B2g    0.578476
      11B1u    0.650591     2Au     0.650594    13Ag     0.667399
       7B2u    0.702597     7B3u    0.702597     6B3g    0.743224
       6B2g    0.743224     3B1g    0.781237    14Ag     0.781237
       7B3g    0.857541     7B2g    0.857541    12B1u    0.873812
       8B2u    1.027960     8B3u    1.027960    13B1u    1.061974
       3Au     1.061975    14B1u    1.102594     8B3g    1.225180
       8B2g    1.225180    15Ag     1.311261    15B1u    1.435772
       4B1g    1.763171    16Ag     1.763177     9B2u    1.803699
       9B3u    1.803699    16B1u    1.812754     4Au     1.842814
      17B1u    1.842820    17Ag     1.924677     9B3g    1.935952
       9B2g    1.935952    18Ag     2.014041     5B1g    2.014050
      19Ag     2.028110    10B2u    2.035964    10B3u    2.035964
      11B2u    2.078327    11B3u    2.078327    12B3u    2.082664
      12B2u    2.082664    10B3g    2.158533    10B2g    2.158533
      18B1u    2.326285     5Au     2.326297    11B3g    2.360468
      11B2g    2.360468    19B1u    2.474098    12B3g    2.669716
      12B2g    2.669716    20Ag     2.683350    20B1u    3.642758
      21Ag     4.634188    21B1u    5.382918

    Beta Occupied:

       1B1u  -89.104853     1Ag   -89.104849     2Ag    -8.111816
       2B1u   -8.111573     3Ag    -6.060865     3B1u   -6.060043
       1B2u   -6.052966     1B3u   -6.052966     1B3g   -6.052897
       1B2g   -6.052897     4Ag    -0.913524     4B1u   -0.667292
       5Ag    -0.459823     2B2u   -0.410923     2B3u   -0.410923

    Beta Virtual:

       2B3g   -0.071747     2B2g   -0.071747     5B1u    0.050730
       6Ag     0.088003     3B2u    0.096424     3B3u    0.096424
       7Ag     0.106447     6B1u    0.111576     3B3g    0.129754
       3B2g    0.129754     8Ag     0.195748     1B1g    0.195748
       7B1u    0.213567     4B2u    0.253888     4B3u    0.253888
       9Ag     0.286011     8B1u    0.313151     1Au     0.313151
       4B3g    0.379313     4B2g    0.379313     9B1u    0.381840
       5B2u    0.459472     5B3u    0.459472    10Ag     0.562698
       6B2u    0.566470     6B3u    0.566470    10B1u    0.570312
      11Ag     0.572088    12Ag     0.585232     2B1g    0.585233
       5B3g    0.587030     5B2g    0.587030    13Ag     0.679734
      11B1u    0.688438     2Au     0.688439     7B2u    0.706584
       7B3u    0.706584     6B3g    0.763791     6B2g    0.763791
       3B1g    0.791667    14Ag     0.791667     7B3g    0.864491
       7B2g    0.864491    12B1u    0.887762     8B2u    1.034135
       8B3u    1.034135    13B1u    1.068532     3Au     1.068532
      14B1u    1.109750     8B3g    1.239194     8B2g    1.239194
      15Ag     1.329205    15B1u    1.450994     4B1g    1.792656
      16Ag     1.792661     9B2u    1.815834     9B3u    1.815834
      16B1u    1.825316     4Au     1.870262    17B1u    1.870267
      17Ag     1.929412     9B3g    1.959964     9B2g    1.959964
      18Ag     2.037051     5B1g    2.037055    19Ag     2.041678
      10B2u    2.061900    10B3u    2.061900    11B2u    2.107448
      11B3u    2.107448    12B3u    2.124720    12B2u    2.124720
      10B3g    2.200747    10B2g    2.200747    18B1u    2.355382
       5Au     2.355388    11B3g    2.385405    11B2g    2.385405
      19B1u    2.491782    12B3g    2.692577    12B2g    2.692577
      20Ag     2.696409    20B1u    3.651465    21Ag     4.653444
      21B1u    5.397211

    Final Occupation by Irrep:
             Ag   B1g   B2g   B3g    Au   B1u   B2u   B3u
    DOCC [     5,    0,    1,    1,    0,    4,    2,    2 ]
    SOCC [     0,    0,    1,    1,    0,    0,    0,    0 ]

  @DF-UKS Final Energy:  -796.39256231760714

   => Energetics <=

    Nuclear Repulsion Energy =             71.5855479814606213
    One-Electron Energy =               -1241.9285316057964792
    Two-Electron Energy =                 411.4381883634587780
    DFT Exchange-Correlation Energy =     -37.4877593805582308
    Empirical Dispersion Energy =          -0.0000076761719593
    VV10 Nonlocal Energy =                  0.0000000000000000
    Total Energy =                       -796.3925623176073714

  UHF NO Occupations:
  HONO-2 :    2B2u 1.9976735
  HONO-1 :    2B3g 1.0000000
  HONO-0 :    2B2g 1.0000000
  LUNO+0 :    3B3u 0.0023265
  LUNO+1 :    3B2u 0.0023265
  LUNO+2 :    5B1u 0.0006763
  LUNO+3 :    6 Ag 0.0005322

Computation Completed

Properties will be evaluated at   0.000000,   0.000000,   0.000000 [a0]

Properties computed using the SCF density matrix

  Nuclear Dipole Moment: [e a0]
     X:     0.0000      Y:     0.0000      Z:     0.0000

  Electronic Dipole Moment: [e a0]
     X:     0.0000      Y:     0.0000      Z:     0.0000

  Dipole Moment: [e a0]
     X:     0.0000      Y:     0.0000      Z:     0.0000     Total:     0.0000

  Dipole Moment: [D]
     X:     0.0000      Y:     0.0000      Z:     0.0000     Total:     0.0000

*** tstop() called on b1-5.compute.lan at Wed Feb  3 17:13:53 2021
Module time:
	user time   =      15.48 seconds =       0.26 minutes
	system time =       0.04 seconds =       0.00 minutes
	total time  =         16 seconds =       0.27 minutes
Total time:
	user time   =     205.54 seconds =       3.43 minutes
	system time =       0.75 seconds =       0.01 minutes
	total time  =        207 seconds =       3.45 minutes

*** tstart() called on b1-5.compute.lan
*** at Wed Feb  3 17:13:53 2021

         ------------------------------------------------------------
                                   SCF GRAD
                          Rob Parrish, Justin Turney,
                       Andy Simmonett, and Alex Sokolov
         ------------------------------------------------------------

  ==> Geometry <==

    Molecular point group: d2h
    Full point group: D_inf_h

    Geometry (in Angstrom), charge = 0, multiplicity = 3:

       Center              X                  Y                   Z               Mass
    ------------   -----------------  -----------------  -----------------  -----------------
         S            0.000000000000     0.000000000000    -0.946206111090    31.972071174400
         S            0.000000000000     0.000000000000     0.946206111090    31.972071174400

  Nuclear repulsion =   71.585547981460621

  ==> Basis Set <==

  Basis Set: AUG-CC-PVTZ
    Blend: AUG-CC-PVTZ
    Number of shells: 32
    Number of basis function: 100
    Number of Cartesian functions: 118
    Spherical Harmonics?: true
    Max angular momentum: 3

  ==> DFJKGrad: Density-Fitted SCF Gradients <==

    Gradient:                    1
    J tasked:                  Yes
    K tasked:                  Yes
    wK tasked:                 Yes
    Omega:               2.000E-01
    OpenMP threads:              1
    Integrals threads:           1
    Memory [MiB]:             7152
    Schwarz Cutoff:          0E+00
    Fitting Condition:       1E-10

   => Auxiliary Basis Set <=

  Basis Set: (AUG-CC-PVTZ AUX)
    Blend: AUG-CC-PVTZ-JKFIT
    Number of shells: 84
    Number of basis function: 292
    Number of Cartesian functions: 360
    Spherical Harmonics?: true
    Max angular momentum: 4

  ==> DFT Potential <==

   => Composite Functional: WB97X-D <=

    wB97X-D Hyb-GGA Exchange-Correlation Functional

    J.-D. Chai and M. Head-Gordon, Phys. Chem. Chem. Phys. 10, 6615 (2008)

    Deriv               =              1
    GGA                 =           TRUE
    Meta                =          FALSE

    Exchange Hybrid     =           TRUE
    MP2 Hybrid          =          FALSE

   => Exchange-Correlation Functionals <=

    1.0000   wB97D range-separated functional

   => Exact (HF) Exchange <=

    0.7780            HF,LR [omega = 0.2000]
    0.2220               HF

   => Molecular Quadrature <=

    Radial Scheme          =       TREUTLER
    Pruning Scheme         =           NONE
    Nuclear Scheme         =       TREUTLER

    BS radius alpha        =              1
    Pruning alpha          =              1
    Radial Points          =             99
    Spherical Points       =            590
    Total Points           =         113350
    Total Blocks           =            980
    Max Points             =            256
    Max Functions          =            100
    Weights Tolerance      =       1.00E-15

  -Total Gradient:
     Atom            X                  Y                   Z
    ------   -----------------  -----------------  -----------------
       1        0.000000000000     0.000000000000     0.000428106101
       2        0.000000000000     0.000000000000    -0.000428106101

*** tstop() called on b1-5.compute.lan at Wed Feb  3 17:13:57 2021
Module time:
	user time   =       4.57 seconds =       0.08 minutes
	system time =       0.02 seconds =       0.00 minutes
	total time  =          4 seconds =       0.07 minutes
Total time:
	user time   =     210.12 seconds =       3.50 minutes
	system time =       0.77 seconds =       0.01 minutes
	total time  =        211 seconds =       3.52 minutes

         ----------------------------------------------------------
                                   FINDIF
                     R. A. King and Jonathon Misiewicz
         ---------------------------------------------------------

  Computing second-derivative from gradients using projected,
  symmetry-adapted, cartesian coordinates.

  3 gradients passed in, including the reference geometry.
  Generating complete list of displacements from unique ones.

-------------------------------------------------------------

  ==> Harmonic Vibrational Analysis <==

  non-mass-weighted Hessian:       Symmetric? True   Hermitian? True   Lin Dep Dim?  5 (0)
  projection of translations (True) and rotations (True) removed 5 degrees of freedom (5)
  total projector:                 Symmetric? True   Hermitian? True   Lin Dep Dim?  5 (5)
  mass-weighted Hessian:           Symmetric? True   Hermitian? True   Lin Dep Dim?  5 (0)
  pre-proj  low-frequency mode:    0.0000  [cm^-1]
  pre-proj  low-frequency mode:    0.0000  [cm^-1]
  pre-proj  low-frequency mode:    0.0000  [cm^-1]
  pre-proj  low-frequency mode:    0.0000  [cm^-1]
  pre-proj  low-frequency mode:    0.0000  [cm^-1]
  pre-proj  all modes:['0.0000' '0.0000' '0.0000' '0.0000' '0.0000' '751.5975']
  projected mass-weighted Hessian: Symmetric? True   Hermitian? True   Lin Dep Dim?  5 (5)
  post-proj low-frequency mode:    0.0000i [cm^-1] (TR)
  post-proj low-frequency mode:    0.0000  [cm^-1] (TR)
  post-proj low-frequency mode:    0.0000  [cm^-1] (TR)
  post-proj low-frequency mode:    0.0000  [cm^-1] (TR)
  post-proj low-frequency mode:    0.0000  [cm^-1] (TR)
  post-proj  all modes:['0.0000i' '0.0000' '0.0000' '0.0000' '0.0000' '751.5975']

  Vibration                       6
  Freq [cm^-1]                 751.5975
  Irrep                           Ag
  Reduced mass [u]             31.9721
  Force const [mDyne/A]        10.6412
  Turning point v=0 [a0]        0.0708
  RMS dev v=0 [a0 u^1/2]        0.2830
  Char temp [K]               1081.3814
  ----------------------------------------------------------------------------------
      1   S                0.00  0.00  0.71
      2   S                0.00  0.00 -0.71

  ==> Thermochemistry Components <==

  Entropy, S
    Electronic S            2.183 [cal/(mol K)]        9.134 [J/(mol K)]       0.00347910 [mEh/K] (multiplicity = 3)
    Translational S        38.385 [cal/(mol K)]      160.603 [J/(mol K)]       0.06117054 [mEh/K] (mol. weight = 63.9441 [u], P = 101325.00 [Pa])
    Rotational S           13.640 [cal/(mol K)]       57.070 [J/(mol K)]       0.02173690 [mEh/K] (symmetry no. = 2)
    Vibrational S           0.251 [cal/(mol K)]        1.048 [J/(mol K)]       0.00039920 [mEh/K]
  Total S                  54.459 [cal/(mol K)]      227.856 [J/(mol K)]       0.08678574 [mEh/K]
  Correction S              0.000 [cal/(mol K)]        0.000 [J/(mol K)]       0.00000000 [mEh/K]

  Constant volume heat capacity, Cv
    Electronic Cv           0.000 [cal/(mol K)]        0.000 [J/(mol K)]       0.00000000 [mEh/K]
    Translational Cv        2.981 [cal/(mol K)]       12.472 [J/(mol K)]       0.00475022 [mEh/K]
    Rotational Cv           1.987 [cal/(mol K)]        8.314 [J/(mol K)]       0.00316681 [mEh/K]
    Vibrational Cv          0.734 [cal/(mol K)]        3.070 [J/(mol K)]       0.00116937 [mEh/K]
  Total Cv                  5.702 [cal/(mol K)]       23.856 [J/(mol K)]       0.00908639 [mEh/K]
  Correction Cv             0.000 [cal/(mol K)]        0.000 [J/(mol K)]       0.00000000 [mEh/K]

  Constant pressure heat capacity, Cp
    Electronic Cp           0.000 [cal/(mol K)]        0.000 [J/(mol K)]       0.00000000 [mEh/K]
    Translational Cp        4.968 [cal/(mol K)]       20.786 [J/(mol K)]       0.00791703 [mEh/K]
    Rotational Cp           1.987 [cal/(mol K)]        8.314 [J/(mol K)]       0.00316681 [mEh/K]
    Vibrational Cp          0.734 [cal/(mol K)]        3.070 [J/(mol K)]       0.00116937 [mEh/K]
  Total Cp                  7.689 [cal/(mol K)]       32.171 [J/(mol K)]       0.01225320 [mEh/K]
  Correction Cp             0.000 [cal/(mol K)]        0.000 [J/(mol K)]       0.00000000 [mEh/K]

  ==> Thermochemistry Energy Analysis <==

  Raw electronic energy, E0
  Total E0, Electronic energy at well bottom at 0 [K]                 -796.39256274 [Eh]

  Zero-point energy, ZPE_vib = Sum_i nu_i / 2
    Electronic ZPE          0.000 [kcal/mol]        0.000 [kJ/mol]       0.00000000 [Eh]
    Translational ZPE       0.000 [kcal/mol]        0.000 [kJ/mol]       0.00000000 [Eh]
    Rotational ZPE          0.000 [kcal/mol]        0.000 [kJ/mol]       0.00000000 [Eh]
    Vibrational ZPE         1.074 [kcal/mol]        4.496 [kJ/mol]       0.00171227 [Eh]         375.799 [cm^-1]
  Correction ZPE            1.074 [kcal/mol]        4.496 [kJ/mol]       0.00171227 [Eh]         375.799 [cm^-1]
  Total ZPE, Electronic energy at 0 [K]                               -796.39085048 [Eh]

  Thermal Energy, E (includes ZPE)
    Electronic E            0.000 [kcal/mol]        0.000 [kJ/mol]       0.00000000 [Eh]
    Translational E         0.889 [kcal/mol]        3.718 [kJ/mol]       0.00141628 [Eh]
    Rotational E            0.592 [kcal/mol]        2.479 [kJ/mol]       0.00094418 [Eh]
    Vibrational E           1.133 [kcal/mol]        4.741 [kJ/mol]       0.00180583 [Eh]
  Correction E              2.614 [kcal/mol]       10.939 [kJ/mol]       0.00416630 [Eh]
  Total E, Electronic energy at  298.15 [K]                           -796.38839645 [Eh]

  Enthalpy, H_trans = E_trans + k_B * T
    Electronic H            0.000 [kcal/mol]        0.000 [kJ/mol]       0.00000000 [Eh]
    Translational H         1.481 [kcal/mol]        6.197 [kJ/mol]       0.00236046 [Eh]
    Rotational H            0.592 [kcal/mol]        2.479 [kJ/mol]       0.00094418 [Eh]
    Vibrational H           1.133 [kcal/mol]        4.741 [kJ/mol]       0.00180583 [Eh]
  Correction H              3.207 [kcal/mol]       13.418 [kJ/mol]       0.00511048 [Eh]
  Total H, Enthalpy at  298.15 [K]                                    -796.38745226 [Eh]

  Gibbs free energy, G = H - T * S
    Electronic G           -0.651 [kcal/mol]       -2.723 [kJ/mol]      -0.00103729 [Eh]
    Translational G        -9.963 [kcal/mol]      -41.686 [kJ/mol]      -0.01587754 [Eh]
    Rotational G           -3.474 [kcal/mol]      -14.537 [kJ/mol]      -0.00553667 [Eh]
    Vibrational G           1.058 [kcal/mol]        4.429 [kJ/mol]       0.00168681 [Eh]
  Correction G            -13.030 [kcal/mol]      -54.518 [kJ/mol]      -0.02076469 [Eh]
  Total G, Free enthalpy at  298.15 [K]                               -796.41332743 [Eh]

    Psi4 stopped on: Wednesday, 03 February 2021 05:13PM
    Psi4 wall time for execution: 0:03:31.32

*** Psi4 exiting successfully. Buy a developer a beer!
