                               Psi4 1.3.2 release

  ==> Input File <==

--------------------------------------------------------------------------
memory 46 GB

basis jerome {
assign pot
assign S aug-cc-pV(T+d)Z

[pot]
spherical
****
 K  0
 S 23 1.00
    2.709796E+07     4.136110E-07
    3.592856E+06     3.860330E-06
    7.222638E+05     2.394640E-05
    1.833976E+05     1.157540E-04
    5.464812E+04     4.697010E-04
    1.830913E+04     1.673720E-03
    6.712501E+03     5.370450E-03
    2.643719E+03     1.572510E-02
    1.103835E+03     4.193360E-02
    4.836777E+02     9.987620E-02
    2.206245E+02     2.019680E-01
    1.041117E+02     3.146270E-01
    5.052749E+01     3.107540E-01
    2.485247E+01     1.421920E-01
    1.128102E+01     1.658490E-02
    5.510166E+00    -2.759760E-04
    2.706914E+00     5.158310E-04
    1.122807E+00    -2.268950E-04
    5.236385E-01     6.652980E-05
    2.355180E-01    -3.685150E-05
    4.157977E-02     1.925250E-05
    2.555456E-02    -2.108420E-05
    1.471495E-02     7.044600E-06
 S 23 1.00
    2.709796E+07    -1.188290E-07
    3.592856E+06    -1.108550E-06
    7.222638E+05    -6.881230E-06
    1.833976E+05    -3.324150E-05
    5.464812E+04    -1.350850E-04
    1.830913E+04    -4.814570E-04
    6.712501E+03    -1.552620E-03
    2.643719E+03    -4.578330E-03
    1.103835E+03    -1.247930E-02
    4.836777E+02    -3.094650E-02
    2.206245E+02    -6.855530E-02
    1.041117E+02    -1.268300E-01
    5.052749E+01    -1.745020E-01
    2.485247E+01    -9.089560E-02
    1.128102E+01     2.506960E-01
    5.510166E+00     5.589630E-01
    2.706914E+00     3.284370E-01
    1.122807E+00     3.392170E-02
    5.236385E-01    -2.100280E-03
    2.355180E-01     1.383960E-03
    4.157977E-02    -5.315630E-04
    2.555456E-02     5.770310E-04
    1.471495E-02    -1.931440E-04
 S 23 1.00
    2.709796E+07     3.917470E-08
    3.592856E+06     3.650640E-07
    7.222638E+05     2.269460E-06
    1.833976E+05     1.094290E-05
    5.464812E+04     4.457360E-05
    1.830913E+04     1.584480E-04
    6.712501E+03     5.128440E-04
    2.643719E+03     1.507690E-03
    1.103835E+03     4.136940E-03
    4.836777E+02     1.024690E-02
    2.206245E+02     2.306520E-02
    1.041117E+02     4.308900E-02
    5.052749E+01     6.238120E-02
    2.485247E+01     3.270420E-02
    1.128102E+01    -1.021980E-01
    5.510166E+00    -3.317970E-01
    2.706914E+00    -3.030100E-01
    1.122807E+00     3.098410E-01
    5.236385E-01     6.732700E-01
    2.355180E-01     2.812200E-01
    4.157977E-02     9.376240E-03
    2.555456E-02    -6.955720E-03
    1.471495E-02     2.069460E-03
 S 23 1.00
    2.709796E+07    -7.564440E-09
    3.592856E+06    -7.055390E-08
    7.222638E+05    -4.380820E-07
    1.833976E+05    -2.115540E-06
    5.464812E+04    -8.601300E-06
    1.830913E+04    -3.064440E-05
    6.712501E+03    -9.892550E-05
    2.643719E+03    -2.917760E-04
    1.103835E+03    -7.977860E-04
    4.836777E+02    -1.985820E-03
    2.206245E+02    -4.449740E-03
    1.041117E+02    -8.390260E-03
    5.052749E+01    -1.206000E-02
    2.485247E+01    -6.568410E-03
    1.128102E+01     2.061430E-02
    5.510166E+00     6.770060E-02
    2.706914E+00     6.639570E-02
    1.122807E+00    -8.237770E-02
    5.236385E-01    -1.727150E-01
    2.355180E-01    -2.310290E-01
    4.157977E-02     5.090040E-01
    2.555456E-02     3.472180E-01
    1.471495E-02     2.809620E-01
 S 1 1.00
    2.555456E-02     1.000000E+00
 S 1 1.00
    1.471495E-02     1.000000E+00
 S 1 1.00
    8.470000E-03     1.000000E+00
 P 16 1.00
    9.533309E+03     4.212010E-05
    1.852081E+03     5.068300E-04
    5.464251E+02     3.311700E-03
    1.966947E+02     1.536840E-02
    7.964112E+01     5.457060E-02
    3.488324E+01     1.473880E-01
    1.604479E+01     2.879240E-01
    7.575632E+00     3.750810E-01
    3.672548E+00     2.545160E-01
    1.771130E+00     6.059280E-02
    8.515199E-01     2.508370E-03
    4.016017E-01     6.688870E-04
    1.851933E-01    -1.486150E-04
    5.523390E-02     4.936010E-05
    2.431085E-02    -3.513850E-05
    1.080339E-02     1.171450E-05
 P 16 1.00
    9.533309E+03    -1.280760E-05
    1.852081E+03    -1.547870E-04
    5.464251E+02    -1.010940E-03
    1.966947E+02    -4.738330E-03
    7.964112E+01    -1.703260E-02
    3.488324E+01    -4.754130E-02
    1.604479E+01    -9.560810E-02
    7.575632E+00    -1.337000E-01
    3.672548E+00    -7.425060E-02
    1.771130E+00     1.646810E-01
    8.515199E-01     4.057630E-01
    4.016017E-01     4.113600E-01
    1.851933E-01     1.734240E-01
    5.523390E-02     1.253640E-02
    2.431085E-02    -3.267140E-03
    1.080339E-02     1.039680E-03
 P 16 1.00
    9.533309E+03     1.764010E-06
    1.852081E+03     2.124880E-05
    5.464251E+02     1.392500E-04
    1.966947E+02     6.509140E-04
    7.964112E+01     2.349940E-03
    3.488324E+01     6.547470E-03
    1.604479E+01     1.326270E-02
    7.575632E+00     1.848520E-02
    3.672548E+00     1.025530E-02
    1.771130E+00    -2.652150E-02
    8.515199E-01    -6.086460E-02
    4.016017E-01    -7.474220E-02
    1.851933E-01    -4.870880E-02
    5.523390E-02     2.245720E-01
    2.431085E-02     5.839280E-01
    1.080339E-02     2.980960E-01
 P 1 1.00
    5.523390E-02     1.000000E+00
 P 1 1.00
    1.080339E-02     1.000000E+00
 P 1 1.00
    4.800000E-03     1.000000E+00
 D 6 1.00
    5.670903E+00     8.285900E-03
    1.459042E+00     2.332530E-02
    5.431827E-01     4.878080E-02
    1.346875E-01     7.349020E-02
    5.516013E-02     2.387630E-01
    1.501876E-02     8.253200E-01
 D 1 1.00
    5.516013E-02     1.000000E+00
 D 1 1.00
    1.501876E-02     1.000000E+00
 D 1 1.00
    6.010000E-03     1.000000E+00
 F 1 1.00
    8.493750E-02     1.000000E+00
 F 1 1.00
    3.398000E-02     1.000000E+00
 ****
}

molecule  {
0 2
S   -0.000000000000    0.000000000000    0.486039926900
S    0.000000000000    0.000000000000    2.501052304800
K    0.000000000000    0.000000000000   -2.451089335400
}
set {
basis jerome
reference uhf
g_convergence gau_verytight
e_convergence 10
scf_type pk
freeze_core true
geom_maxiter 100
}

set ccenergy {
e_convergence 10
r_convergence 10
}

e = energy('ccsd(t)')

print_out('Stephenergy {}'.format(e))

--------------------------------------------------------------------------

    Molecular point group: c2v

    Geometry (in Angstrom), charge = 0, multiplicity = 2:

       Center              X                  Y                   Z               Mass
    ------------   -----------------  -----------------  -----------------  -----------------
         S            0.000000000000     0.000000000000     0.486039926901    31.972071174400
         S            0.000000000000     0.000000000000     2.501052304801    31.972071174400
         K            0.000000000000     0.000000000000    -2.451089335399    38.963706486400

  Charge       = 0
  Multiplicity = 2
  Basis Set: JEROME
    Blend: AUG-CC-PV(T+D)Z + POT

    Orbital Energies [Eh]
    ---------------------

    Alpha Occupied:

       1A1  -133.573109     2A1   -91.907684     3A1   -91.876579
       4A1   -14.529565     1B1   -11.559572     1B2   -11.559512
       5A1   -11.559424     6A1    -8.905725     7A1    -8.876394
       2B1    -6.598200     8A1    -6.583877     2B2    -6.581887
       3B1    -6.561263     9A1    -6.556742     3B2    -6.555507
      10A1    -1.788127     4B1    -0.996578    11A1    -0.996549
       4B2    -0.996072    12A1    -0.950570    13A1    -0.740324
       5B1    -0.413040    14A1    -0.410174     5B2    -0.374416
       6B1    -0.276583     6B2    -0.239224

    Alpha Virtual:

      15A1    -0.025360     7B1     0.000213     7B2     0.000465
      16A1     0.003573    17A1     0.014385     1A2     0.016333
      18A1     0.016348     8B1     0.017612     8B2     0.017936
       9B1     0.022314     9B2     0.022784    19A1     0.026569
      20A1     0.030653     2A2     0.048228    21A1     0.048233
      10B1     0.057904    10B2     0.058920    22A1     0.061363
      11B1     0.069034    11B2     0.069756    23A1     0.080131
      24A1     0.091676    25A1     0.107450    12B1     0.116991
      12B2     0.118444    13B1     0.122994    13B2     0.122995
      26A1     0.128571     3A2     0.128615    27A1     0.131757
       4A2     0.146421    28A1     0.146441    14B1     0.157303
      14B2     0.161984    29A1     0.167959    15B1     0.183115
      15B2     0.187090    30A1     0.197657    31A1     0.221369
      16B1     0.221547    16B2     0.223531    17B1     0.231213
      17B2     0.234758    32A1     0.277379    33A1     0.306778
      34A1     0.315073     5A2     0.317862    35A1     0.323749
      18B1     0.358552    18B2     0.365102     6A2     0.367679
      36A1     0.367847    19B1     0.376014    19B2     0.376014
       7A2     0.378956    37A1     0.378956    20B1     0.396721
      20B2     0.399997    38A1     0.400253    39A1     0.438912
       8A2     0.452342    40A1     0.452767    41A1     0.455593
      21B1     0.455666    21B2     0.465928    42A1     0.534044
      22B1     0.539153    22B2     0.551672    23B1     0.649899
      23B2     0.666484    43A1     0.717937    24B1     0.733236
      24B2     0.746901    44A1     0.755058     9A2     0.758483
      45A1     0.775213    25B1     0.841005    10A2     0.855072
      46A1     0.855089    25B2     0.861789    47A1     0.871076
      26B1     0.874856    26B2     0.874871    27B1     0.938337
      27B2     0.952559    48A1     0.965437    11A2     0.968626
      49A1     0.969610    28B1     1.017510    28B2     1.017521
      50A1     1.041625    51A1     1.176221    29B1     1.188542
      29B2     1.204015    52A1     1.220438    12A2     1.221592
      53A1     1.269325    30B1     1.380727    30B2     1.397665
      54A1     1.521514    55A1     1.724461    13A2     2.001176
      56A1     2.001890    57A1     2.090015    14A2     2.090048
      31B1     2.136269    58A1     2.136835    31B2     2.155550
      32B1     2.226883    32B2     2.248888    33B1     2.308439
      59A1     2.309113    33B2     2.328330    15A2     2.387036
      60A1     2.387569    34B1     2.411160    34B2     2.411298
      35B1     2.477684    35B2     2.477998    36B1     2.478412
      36B2     2.502233    61A1     2.503911    37B1     2.604857
      62A1     2.612886    16A2     2.613618    37B2     2.624427
      63A1     2.755028    64A1     2.865159    38B1     2.928761
      38B2     2.950475    65A1     4.064287    66A1     5.004515
      67A1     5.793290    68A1     7.396466    17A2     7.396627
      69A1     7.450343    18A2     7.450360    39B1     7.477005
      39B2     7.492936    40B1     7.553495    40B2     7.561659
      70A1     7.616613    71A1     7.668567

    Beta Occupied:

       1A1  -133.573121     2A1   -91.900038     3A1   -91.874040
       4A1   -14.529583     1B1   -11.559532     1B2   -11.559527
       5A1   -11.559473     6A1    -8.897388     7A1    -8.873622
       8A1    -6.579597     2B2    -6.577296     2B1    -6.564604
       9A1    -6.556162     3B2    -6.553885     3B1    -6.549579
      10A1    -1.788157     4B1    -0.996311     4B2    -0.996137
      11A1    -0.996032    12A1    -0.912363    13A1    -0.675678
      14A1    -0.394112     5B2    -0.365599     5B1    -0.298239
       6B2    -0.227347

    Beta Virtual:

      15A1    -0.025249     6B1     0.000165     7B2     0.000467
      16A1     0.003626    17A1     0.014386     1A2     0.016334
      18A1     0.016348     7B1     0.017448     8B2     0.017939
       8B1     0.022353     9B2     0.022784    19A1     0.026710
      20A1     0.030688     2A2     0.048257    21A1     0.048260
       9B1     0.056992    10B2     0.058936    22A1     0.061368
      10B1     0.065371    11B2     0.069765    11B1     0.079562
      23A1     0.080057    24A1     0.092649    25A1     0.108619
      12B2     0.118561    12B1     0.122868    13B2     0.123014
      13B1     0.123082    26A1     0.128643     3A2     0.128690
      27A1     0.131900     4A2     0.146821    28A1     0.146829
      14B2     0.162174    14B1     0.162810    29A1     0.167781
      15B2     0.187614    15B1     0.197363    30A1     0.206199
      16B1     0.222719    31A1     0.223054    16B2     0.223521
      17B2     0.234448    17B1     0.238353    32A1     0.277418
      33A1     0.309828    34A1     0.323595     5A2     0.327368
      35A1     0.328005    18B2     0.364747    18B1     0.367176
       6A2     0.372586    36A1     0.372647    19B2     0.376153
      19B1     0.376153     7A2     0.379347    37A1     0.379352
      20B2     0.399771    38A1     0.400750    20B1     0.401425
      39A1     0.443928    40A1     0.457165     8A2     0.460475
      41A1     0.460951    21B2     0.466715    21B1     0.474679
      42A1     0.540371    22B2     0.552753    22B1     0.565149
      23B2     0.668677    23B1     0.672139    43A1     0.722873
      24B2     0.749193    24B1     0.755869    44A1     0.775529
      45A1     0.789376     9A2     0.789730    25B2     0.863229
      25B1     0.873202    46A1     0.878346    10A2     0.880640
      26B2     0.880790    26B1     0.880973    47A1     0.881184
      27B2     0.953015    27B1     0.959607    48A1     0.972412
      11A2     0.979318    49A1     0.979537    28B2     1.027143
      28B1     1.027149    50A1     1.047136    51A1     1.181883
      29B1     1.201506    29B2     1.204421    52A1     1.228508
      12A2     1.228873    53A1     1.273350    30B1     1.397330
      30B2     1.399680    54A1     1.535148    55A1     1.735754
      56A1     2.020530    13A2     2.020570    57A1     2.101846
      14A2     2.101951    58A1     2.138804    31B1     2.149821
      31B2     2.156819    32B1     2.249781    32B2     2.251181
      59A1     2.314031    33B1     2.325576    33B2     2.330391
      15A2     2.399508    60A1     2.399553    34B2     2.434941
      34B1     2.434945    35B2     2.496056    35B1     2.496059
      36B2     2.506686    61A1     2.507883    36B1     2.512967
      62A1     2.626431    16A2     2.626552    37B1     2.626777
      37B2     2.627470    63A1     2.761226    64A1     2.869800
      38B1     2.948608    38B2     2.952519    65A1     4.067434
      66A1     5.014737    67A1     5.802497    68A1     7.404675
      17A2     7.404752    69A1     7.454234    18A2     7.454247
      39B1     7.484550    39B2     7.494012    40B1     7.557021
      40B2     7.562046    70A1     7.619046    71A1     7.670028

    Final Occupation by Irrep:
             A1    A2    B1    B2
    DOCC [    14,    0,    5,    6 ]
    SOCC [     0,    0,    1,    0 ]

  @UHF Final Energy: -1394.29577705800261

   => Energetics <=

    Nuclear Repulsion Energy =            154.4860752201705623
    One-Electron Energy =               -2234.2395835526726842
    Two-Electron Energy =                 685.4577312744994515
    Total Energy =                      -1394.2957770580023862

  UHF NO Occupations:
  HONO-2 :   14 A1 1.9957381
  HONO-1 :    5 B1 1.9922253
  HONO-0 :    6 B1 1.0000000
  LUNO+0 :    7 B1 0.0077747
  LUNO+1 :   15 A1 0.0042619
  LUNO+2 :   16 A1 0.0009124
  LUNO+3 :    7 B2 0.0003813

Computation Completed

Properties will be evaluated at   0.000000,   0.000000,   0.000000 [a0]

Properties computed using the SCF density matrix

  Nuclear Dipole Moment: [e a0]
     X:     0.0000      Y:     0.0000      Z:     2.3107

  Electronic Dipole Moment: [e a0]
     X:     0.0000      Y:     0.0000      Z:    -7.8487

  Dipole Moment: [e a0]
     X:     0.0000      Y:     0.0000      Z:    -5.5380     Total:     5.5380

  Dipole Moment: [D]
     X:     0.0000      Y:     0.0000      Z:   -14.0761     Total:    14.0761

*** tstop() called on c4-21.compute.lan at Fri Mar  5 15:34:07 2021
Module time:
	user time   =     229.64 seconds =       3.83 minutes
	system time =       1.56 seconds =       0.03 minutes
	total time  =         60 seconds =       1.00 minutes
Total time:
	user time   =     229.64 seconds =       3.83 minutes
	system time =       1.56 seconds =       0.03 minutes
	total time  =         60 seconds =       1.00 minutes
 MINTS: Wrapper to libmints.
   by Justin Turney

   Calculation information:
      Number of threads:                12
      Number of atoms:                   3
      Number of AO shells:              53
      Number of SO shells:              53
      Number of primitives:            287
      Number of atomic orbitals:       199
      Number of basis functions:       169

      Number of irreps:                  4
      Integral cutoff                 0.00e+00
      Number of functions per irrep: [  71   18   40   40 ]

 OEINTS: Overlap, kinetic, potential, dipole, and quadrupole integrals
         stored in file 35.

      Computing two-electron integrals...done
      Computed 25856846 non-zero two-electron integrals.
        Stored in file 33.

*** tstart() called on c4-21.compute.lan
*** at Fri Mar  5 15:35:44 2021

	Wfn Parameters:
	--------------------
	Wavefunction         = CCSD_T
	Number of irreps     = 4
	Number of MOs        = 169
	Number of active MOs = 150
	AO-Basis             = NONE
	Semicanonical        = false
	Reference            = UHF
	Print Level          = 1

	IRREP	# MOs	# FZDC	# DOCC	# SOCC	# VIRT	# FZVR
	-----	-----	------	------	------	------	------
	 A1	   71	    11	    3	    0	    57	    0
	 A2	   18	    0	    0	    0	    18	    0
	 B1	   40	    4	    1	    1	    34	    0
	 B2	   40	    4	    2	    0	    34	    0
	Transforming integrals...
	IWL integrals will be deleted.
	(OO|OO)...
	Presorting SO-basis two-electron integrals.
	Sorting File: SO Ints (nn|nn) nbuckets = 1
	Transforming the one-electron integrals and constructing Fock matrices
	Starting AA/AB first half-transformation.
	Sorting AA/AB half-transformed integrals.
	Starting BB first half-transformation.
	Sorting BB half-transformed integrals.
	First half integral transformation complete.
	Starting AA second half-transformation.
	Starting AB second half-transformation.
	Starting BB second half-transformation.
	Two-electron integral transformation complete.
	(OO|OV)...
	Starting AA second half-transformation.
	Starting AB second half-transformation.
	Starting BB second half-transformation.
	Two-electron integral transformation complete.
	(OO|VV)...
	Starting AA second half-transformation.
	Starting AB second half-transformation.
	Starting BB second half-transformation.
	Two-electron integral transformation complete.
	(OV|OO)...
	Starting AA/AB first half-transformation.
	Sorting AA/AB half-transformed integrals.
	Starting BB first half-transformation.
	Sorting BB half-transformed integrals.
	First half integral transformation complete.
	Starting AA second half-transformation.
	Starting AB second half-transformation.
	Starting BB second half-transformation.
	Two-electron integral transformation complete.
	(OV|OV)...
	Starting AA second half-transformation.
	Starting AB second half-transformation.
	Starting BB second half-transformation.
	Two-electron integral transformation complete.
	(OV|VV)...
	Starting AA second half-transformation.
	Starting AB second half-transformation.
	Starting BB second half-transformation.
	Two-electron integral transformation complete.
	(VV|OO)...
	Starting AA/AB first half-transformation.
	Sorting AA/AB half-transformed integrals.
	Starting BB first half-transformation.
	Sorting BB half-transformed integrals.
	First half integral transformation complete.
	Starting AA second half-transformation.
	Starting AB second half-transformation.
	Starting BB second half-transformation.
	Two-electron integral transformation complete.
	(VV|OV)...
	Starting AA second half-transformation.
	Starting AB second half-transformation.
	Starting BB second half-transformation.
	Two-electron integral transformation complete.
	(VV|VV)...
	Starting AA second half-transformation.
	Starting AB second half-transformation.
	Starting BB second half-transformation.
	Two-electron integral transformation complete.
	Frozen core energy     =  -1517.51467620535504

	Size of irrep 0 of <AB|CD> integrals:      8.243 (MW) /     65.941 (MB)
	Size of irrep 1 of <AB|CD> integrals:      4.761 (MW) /     38.089 (MB)
	Size of irrep 2 of <AB|CD> integrals:      6.503 (MW) /     52.020 (MB)
	Size of irrep 3 of <AB|CD> integrals:      6.503 (MW) /     52.020 (MB)
	Total:                                    26.009 (MW) /    208.070 (MB)

	Size of irrep 0 of <ab|cd> integrals:      8.439 (MW) /     67.512 (MB)
	Size of irrep 1 of <ab|cd> integrals:      4.911 (MW) /     39.285 (MB)
	Size of irrep 2 of <ab|cd> integrals:      6.796 (MW) /     54.372 (MB)
	Size of irrep 3 of <ab|cd> integrals:      6.595 (MW) /     52.757 (MB)
	Total:                                    26.741 (MW) /    213.926 (MB)

	Size of irrep 0 of <Ab|Cd> integrals:     35.035 (MW) /    280.276 (MB)
	Size of irrep 1 of <Ab|Cd> integrals:     19.342 (MW) /    154.739 (MB)
	Size of irrep 2 of <Ab|Cd> integrals:     26.595 (MW) /    212.757 (MB)
	Size of irrep 3 of <Ab|Cd> integrals:     26.194 (MW) /    209.551 (MB)
	Total:                                   107.166 (MW) /    857.324 (MB)

	Size of irrep 0 of <IA|BC> integrals:      1.807 (MW) /     14.454 (MB)
	Size of irrep 1 of <IA|BC> integrals:      0.829 (MW) /      6.633 (MB)
	Size of irrep 2 of <IA|BC> integrals:      1.285 (MW) /     10.282 (MB)
	Size of irrep 3 of <IA|BC> integrals:      1.285 (MW) /     10.282 (MB)
	Total:                                     5.206 (MW) /     41.650 (MB)

	Size of irrep 0 of <ia|bc> integrals:      1.631 (MW) /     13.051 (MB)
	Size of irrep 1 of <ia|bc> integrals:      0.700 (MW) /      5.602 (MB)
	Size of irrep 2 of <ia|bc> integrals:      1.032 (MW) /      8.259 (MB)
	Size of irrep 3 of <ia|bc> integrals:      1.202 (MW) /      9.615 (MB)
	Total:                                     4.566 (MW) /     36.527 (MB)

	Size of irrep 0 of <Ia|Bc> integrals:      1.829 (MW) /     14.632 (MB)
	Size of irrep 1 of <Ia|Bc> integrals:      0.844 (MW) /      6.755 (MB)
	Size of irrep 2 of <Ia|Bc> integrals:      1.315 (MW) /     10.520 (MB)
	Size of irrep 3 of <Ia|Bc> integrals:      1.290 (MW) /     10.318 (MB)
	Total:                                     5.278 (MW) /     42.225 (MB)

	Size of irrep 0 of <iA|bC> integrals:      1.616 (MW) /     12.927 (MB)
	Size of irrep 1 of <iA|bC> integrals:      0.686 (MW) /      5.489 (MB)
	Size of irrep 2 of <iA|bC> integrals:      1.006 (MW) /      8.045 (MB)
	Size of irrep 3 of <iA|bC> integrals:      1.198 (MW) /      9.581 (MB)
	Total:                                     4.505 (MW) /     36.042 (MB)

	Size of irrep 0 of tIjAb amplitudes:       0.089 (MW) /      0.710 (MB)
	Size of irrep 1 of tIjAb amplitudes:       0.026 (MW) /      0.211 (MB)
	Size of irrep 2 of tIjAb amplitudes:       0.046 (MW) /      0.371 (MB)
	Size of irrep 3 of tIjAb amplitudes:       0.061 (MW) /      0.491 (MB)
	Total:                                     0.223 (MW) /      1.784 (MB)

	Nuclear Rep. energy          =    154.48607522017056
	SCF energy                   =  -1394.29577705800261
	One-electron energy          =    -56.25668193053051
	Two-electron (AA) energy     =      6.13730836261976
	Two-electron (BB) energy     =      4.38865316778456
	Two-electron (AB) energy     =     14.46354432728529
	Two-electron energy          =     24.98950585768961
	Reference energy             =  -1394.29577705802535

*** tstop() called on c4-21.compute.lan at Fri Mar  5 15:36:25 2021
Module time:
	user time   =     210.84 seconds =       3.51 minutes
	system time =      16.14 seconds =       0.27 minutes
	total time  =         41 seconds =       0.68 minutes
Total time:
	user time   =     539.45 seconds =       8.99 minutes
	system time =      18.63 seconds =       0.31 minutes
	total time  =        198 seconds =       3.30 minutes
            **************************
            *                        *
            *        CCENERGY        *
            *                        *
            **************************

    Nuclear Rep. energy (wfn)     =  154.486075220170562
    SCF energy          (wfn)     = -1394.295777058002614
    Reference energy    (file100) = -1394.295777058025351

    Input parameters:
    -----------------
    Wave function   =     CCSD_T
    Reference wfn   =     UHF
    Brueckner       =     No
    Memory (Mbytes) =     46000.0
    Maxiter         =     50
    R_Convergence   =     1.0e-10
    E_Convergence   =     1.0e-10
    Restart         =     Yes
    DIIS            =     Yes
    AO Basis        =     NONE
    ABCD            =     NEW
    Cache Level     =     2
    Cache Type      =     LRU
    Print Level     =     1
    Num. of threads =     12
    # Amps to Print =     10
    Print MP2 Amps? =     No
    Analyze T2 Amps =     No
    Print Pair Ener =     No
    Local CC        =     No
    SCS-MP2         =     False
    SCSN-MP2        =     False
    SCS-CCSD        =     False

MP2 correlation energy -0.3404604367659309
                Solving CC Amplitude Equations
                ------------------------------
  Iter             Energy              RMS        T1Diag      D1Diag    New D1Diag    D2Diag

      * MP2 total energy                      = -1394.636237494791203
      * CCSD total energy                     = -1394.665563118864611
      * CCSD(T) total energy                     = -1394.686971929229685
*** Psi4 exiting successfully. Buy a developer a beer!
