                               Psi4 1.4a2.dev191

  ==> Input File <==

--------------------------------------------------------------------------
memory 10 GB

molecule  {
-2 1
S
S 1 r1
S 1 r2 2 a1
r1 = 2.0
r2 = 2.1
a1 = 120.0
}

set {
reference uks
basis aug-cc-pvtz
g_convergence gau_verytight
dft_spherical_points 590
dft_radial_points 99
}

optimize('wb97x-d')
frequencies('wb97x-d')

--------------------------------------------------------------------------

    Molecular point group: cs
  Charge       = -2
  Multiplicity = 1
  Basis Set: AUG-CC-PVTZ
    Blend: AUG-CC-PVTZ
  Basis Set: (AUG-CC-PVTZ AUX)
    Blend: AUG-CC-PVTZ-JKFIT
  @DF-UKS Final Energy: -1194.57596553042322
    Total Energy =                      -1194.5759655304234457
    Molecular point group: cs
  Basis Set: AUG-CC-PVTZ
    Blend: AUG-CC-PVTZ
  Basis Set: (AUG-CC-PVTZ AUX)
    Blend: AUG-CC-PVTZ-JKFIT
  Basis Set: AUG-CC-PVTZ
    Blend: AUG-CC-PVTZ
  Basis Set: (AUG-CC-PVTZ AUX)
    Blend: AUG-CC-PVTZ-JKFIT
  @DF-UKS Final Energy: -1194.58013773055291
    Total Energy =                      -1194.5801377305529059
  Basis Set: AUG-CC-PVTZ
    Blend: AUG-CC-PVTZ
  Basis Set: (AUG-CC-PVTZ AUX)
    Blend: AUG-CC-PVTZ-JKFIT
  Basis Set: AUG-CC-PVTZ
    Blend: AUG-CC-PVTZ
  @DF-UKS Final Energy: -1194.58093814621543
    Total Energy =                      -1194.5809381462154306
  @DF-UKS Final Energy: -1194.58102129466693
    Total Energy =                      -1194.5810212946669253
  @DF-UKS Final Energy: -1194.58103724808939
    Total Energy =                      -1194.5810372480893875
  @DF-UKS Final Energy: -1194.58103824894579
    Total Energy =                      -1194.5810382489457879
  @DF-UKS Final Energy: -1194.58103839115051
    Total Energy =                      -1194.5810383911505141
  @DF-UKS Final Energy: -1194.58103840444005
    Total Energy =                      -1194.5810384044400507
  @DF-UKS Final Energy: -1194.58103840509193
    Total Energy =                      -1194.5810384050919311
  **** Optimization is complete! (in 9 steps) ****
    Final optimized geometry and variables:
  @DF-UKS Final Energy: -1194.58103840509079
    Total Energy =                      -1194.5810384050907942
  @DF-UKS Final Energy: -1194.58103840403419
    Total Energy =                      -1194.5810384040341887
  @DF-UKS Final Energy: -1194.58103833237624
    Total Energy =                      -1194.5810383323762380
  @DF-UKS Final Energy: -1194.58103831175890
    Total Energy =                      -1194.5810383117589026
  @DF-UKS Final Energy: -1194.58103831436574
    Total Energy =                      -1194.5810383143657418
  @DF-UKS Final Energy: -1194.58103830154960
    Total Energy =                      -1194.5810383015495972
  Basis Set: (AUG-CC-PVTZ AUX)
    Blend: AUG-CC-PVTZ-JKFIT
  Basis Set: AUG-CC-PVTZ
    Blend: AUG-CC-PVTZ
  Basis Set: (AUG-CC-PVTZ AUX)
    Blend: AUG-CC-PVTZ-JKFIT
  @DF-UKS Final Energy: -1194.58103838370357
    Total Energy =                      -1194.5810383837035715
  Basis Set: AUG-CC-PVTZ
    Blend: AUG-CC-PVTZ
  Basis Set: (AUG-CC-PVTZ AUX)
    Blend: AUG-CC-PVTZ-JKFIT
    Molecular point group: cs
  Charge       = -2
  Multiplicity = 1
  Basis Set: AUG-CC-PVTZ
    Blend: AUG-CC-PVTZ
  Basis Set: (AUG-CC-PVTZ AUX)
    Blend: AUG-CC-PVTZ-JKFIT

    Orbital Energies [Eh]
    ---------------------

    Alpha Occupied:

       1Ap   -88.728877     2Ap   -88.671707     3Ap   -88.671705
       4Ap    -7.731619     5Ap    -7.678180     6Ap    -7.678175
       7Ap    -5.682072     8Ap    -5.678575     1App   -5.671593
       9Ap    -5.629446    10Ap    -5.629446    11Ap    -5.621348
      12Ap    -5.621348     2App   -5.620576     3App   -5.620576
      13Ap    -0.511747    14Ap    -0.399747    15Ap    -0.294729
      16Ap    -0.088417    17Ap    -0.066613     4App   -0.050459
       5App    0.036011    18Ap     0.043144    19Ap     0.049411
       6App    0.098731

    Alpha Virtual:

      20Ap     0.273871    21Ap     0.278575    22Ap     0.321783
      23Ap     0.344661     7App    0.345782    24Ap     0.346927
       8App    0.354110     9App    0.363738    25Ap     0.364381
      26Ap     0.386031    27Ap     0.406348    28Ap     0.415281
      29Ap     0.479199    30Ap     0.486925    10App    0.529774
      11App    0.552078    31Ap     0.553087    32Ap     0.586153
      33Ap     0.592046    34Ap     0.596267    12App    0.610008
      35Ap     0.614196    13App    0.625500    14App    0.655228
      36Ap     0.660893    37Ap     0.662332    38Ap     0.684141
      15App    0.700806    39Ap     0.728304    16App    0.803812
      40Ap     0.828748    17App    0.880530    41Ap     0.880632
      42Ap     0.896003    43Ap     0.896497    44Ap     0.911202
      18App    0.912707    19App    0.918298    45Ap     0.927415
      20App    0.933068    46Ap     0.939896    47Ap     0.968303
      21App    0.995335    48Ap     0.996288    49Ap     1.002350
      22App    1.017982    50Ap     1.022378    51Ap     1.032242
      52Ap     1.045037    23App    1.061901    53Ap     1.103132
      24App    1.106399    25App    1.106924    54Ap     1.151610
      55Ap     1.156651    26App    1.160173    27App    1.162985
      56Ap     1.176769    57Ap     1.201097    58Ap     1.223326
      59Ap     1.296271    28App    1.324577    29App    1.344795
      60Ap     1.376504    61Ap     1.391721    30App    1.393672
      62Ap     1.471980    31App    1.480817    63Ap     1.505541
      64Ap     1.522124    65Ap     1.552876    32App    1.565505
      33App    1.573076    66Ap     1.659978    67Ap     1.661351
      68Ap     1.762221    69Ap     1.882602    70Ap     2.197012
      34App    2.207815    35App    2.219552    71Ap     2.236185
      72Ap     2.258744    36App    2.263598    37App    2.271082
      73Ap     2.282447    74Ap     2.283296    75Ap     2.350518
      38App    2.356120    76Ap     2.371588    77Ap     2.409005
      39App    2.409640    40App    2.410175    78Ap     2.413744
      41App    2.427770    79Ap     2.443686    80Ap     2.470885
      42App    2.471682    43App    2.489641    81Ap     2.522212
      82Ap     2.530578    44App    2.553197    83Ap     2.559407
      45App    2.565810    84Ap     2.576311    46App    2.640043
      85Ap     2.644203    47App    2.645409    86Ap     2.652190
      48App    2.652545    87Ap     2.657062    49App    2.701456
      88Ap     2.740909    89Ap     2.754078    90Ap     2.794341
      91Ap     2.820075    92Ap     2.825439    93Ap     2.915123
      50App    2.929341    51App    2.930056    94Ap     3.022445
      95Ap     3.958681    96Ap     3.986691    97Ap     4.951076
      98Ap     5.501930    99Ap     6.018818

    Beta Occupied:

       1Ap   -88.728877     2Ap   -88.671707     3Ap   -88.671705
       4Ap    -7.731619     5Ap    -7.678180     6Ap    -7.678175
       7Ap    -5.682072     8Ap    -5.678575     1App   -5.671593
       9Ap    -5.629446    10Ap    -5.629446    11Ap    -5.621348
      12Ap    -5.621348     2App   -5.620576     3App   -5.620576
      13Ap    -0.511747    14Ap    -0.399747    15Ap    -0.294729
      16Ap    -0.088417    17Ap    -0.066613     4App   -0.050459
       5App    0.036011    18Ap     0.043144    19Ap     0.049411
       6App    0.098731

    Beta Virtual:

      20Ap     0.273871    21Ap     0.278575    22Ap     0.321783
      23Ap     0.344661     7App    0.345782    24Ap     0.346927
       8App    0.354110     9App    0.363738    25Ap     0.364381
      26Ap     0.386031    27Ap     0.406348    28Ap     0.415281
      29Ap     0.479199    30Ap     0.486925    10App    0.529774
      11App    0.552078    31Ap     0.553087    32Ap     0.586153
      33Ap     0.592046    34Ap     0.596267    12App    0.610008
      35Ap     0.614196    13App    0.625500    14App    0.655228
      36Ap     0.660893    37Ap     0.662332    38Ap     0.684141
      15App    0.700806    39Ap     0.728304    16App    0.803812
      40Ap     0.828748    17App    0.880530    41Ap     0.880632
      42Ap     0.896003    43Ap     0.896497    44Ap     0.911202
      18App    0.912707    19App    0.918298    45Ap     0.927415
      20App    0.933068    46Ap     0.939896    47Ap     0.968303
      21App    0.995335    48Ap     0.996288    49Ap     1.002350
      22App    1.017982    50Ap     1.022378    51Ap     1.032242
      52Ap     1.045037    23App    1.061901    53Ap     1.103132
      24App    1.106399    25App    1.106924    54Ap     1.151610
      55Ap     1.156651    26App    1.160173    27App    1.162985
      56Ap     1.176769    57Ap     1.201097    58Ap     1.223326
      59Ap     1.296271    28App    1.324577    29App    1.344795
      60Ap     1.376504    61Ap     1.391721    30App    1.393672
      62Ap     1.471980    31App    1.480817    63Ap     1.505541
      64Ap     1.522124    65Ap     1.552876    32App    1.565505
      33App    1.573076    66Ap     1.659978    67Ap     1.661351
      68Ap     1.762221    69Ap     1.882602    70Ap     2.197012
      34App    2.207815    35App    2.219552    71Ap     2.236185
      72Ap     2.258744    36App    2.263598    37App    2.271082
      73Ap     2.282447    74Ap     2.283296    75Ap     2.350518
      38App    2.356120    76Ap     2.371588    77Ap     2.409005
      39App    2.409640    40App    2.410175    78Ap     2.413744
      41App    2.427770    79Ap     2.443686    80Ap     2.470885
      42App    2.471682    43App    2.489641    81Ap     2.522212
      82Ap     2.530578    44App    2.553197    83Ap     2.559407
      45App    2.565810    84Ap     2.576311    46App    2.640043
      85Ap     2.644203    47App    2.645409    86Ap     2.652190
      48App    2.652545    87Ap     2.657062    49App    2.701456
      88Ap     2.740909    89Ap     2.754078    90Ap     2.794341
      91Ap     2.820075    92Ap     2.825439    93Ap     2.915123
      50App    2.929341    51App    2.930056    94Ap     3.022445
      95Ap     3.958681    96Ap     3.986691    97Ap     4.951076
      98Ap     5.501930    99Ap     6.018818

    Final Occupation by Irrep:
             Ap   App
    DOCC [    19,    6 ]
    SOCC [     0,    0 ]

  @DF-UKS Final Energy: -1194.58103834021222

   => Energetics <=

    Nuclear Repulsion Energy =            166.8170598602926589
    One-Electron Energy =               -2001.7588291045019560
    Two-Electron Energy =                 696.7747028770249926
    DFT Exchange-Correlation Energy =     -56.4136951519007610
    Empirical Dispersion Energy =          -0.0002768211270631
    VV10 Nonlocal Energy =                  0.0000000000000000
    Total Energy =                      -1194.5810383402122170

  UHF NO Occupations:
  HONO-2 :    6App 2.0000000
  HONO-1 :   18 Ap 2.0000000
  HONO-0 :   19 Ap 2.0000000
  LUNO+0 :   20 Ap 0.0000000
  LUNO+1 :   21 Ap 0.0000000
  LUNO+2 :   22 Ap 0.0000000
  LUNO+3 :   23 Ap 0.0000000

Computation Completed

Properties will be evaluated at   0.000000,   0.000000,   0.000000 [a0]

Properties computed using the SCF density matrix

  Nuclear Dipole Moment: [e a0]
     X:     0.0000      Y:    -0.0000      Z:     0.0000

  Electronic Dipole Moment: [e a0]
     X:     0.6154      Y:     0.4082      Z:     0.0000

  Dipole Moment: [e a0]
     X:     0.6154      Y:     0.4082      Z:     0.0000     Total:     0.7385

  Dipole Moment: [D]
     X:     1.5642      Y:     1.0376      Z:     0.0000     Total:     1.8771

*** tstop() called on c2-18.compute.lan at Tue Feb  2 15:15:54 2021
Module time:
	user time   =      84.67 seconds =       1.41 minutes
	system time =       0.34 seconds =       0.01 minutes
	total time  =         97 seconds =       1.62 minutes
Total time:
	user time   =    1524.22 seconds =      25.40 minutes
	system time =      69.12 seconds =       1.15 minutes
	total time  =       2168 seconds =      36.13 minutes

*** tstart() called on c2-18.compute.lan
*** at Tue Feb  2 15:15:54 2021

         ------------------------------------------------------------
                                   SCF GRAD
                          Rob Parrish, Justin Turney,
                       Andy Simmonett, and Alex Sokolov
         ------------------------------------------------------------

  ==> Geometry <==

    Molecular point group: cs
    Full point group: Cs

    Geometry (in Angstrom), charge = -2, multiplicity = 1:

       Center              X                  Y                   Z               Mass
    ------------   -----------------  -----------------  -----------------  -----------------
         S            0.648331373273     0.430082411321     0.000000000000    31.972071174400
         S            0.648514282422    -1.681316224038     0.000000000000    31.972071174400
         S           -1.296845655695     1.251233812717     0.000000000000    31.972071174400

  Nuclear repulsion =  166.817059860292659

  ==> Basis Set <==

  Basis Set: AUG-CC-PVTZ
    Blend: AUG-CC-PVTZ
    Number of shells: 48
    Number of basis function: 150
    Number of Cartesian functions: 177
    Spherical Harmonics?: true
    Max angular momentum: 3

  ==> DFJKGrad: Density-Fitted SCF Gradients <==

    Gradient:                    1
    J tasked:                  Yes
    K tasked:                  Yes
    wK tasked:                 Yes
    Omega:               2.000E-01
    OpenMP threads:              1
    Integrals threads:           1
    Memory [MiB]:             7152
    Schwarz Cutoff:          0E+00
    Fitting Condition:       1E-10

   => Auxiliary Basis Set <=

  Basis Set: (AUG-CC-PVTZ AUX)
    Blend: AUG-CC-PVTZ-JKFIT
    Number of shells: 126
    Number of basis function: 438
    Number of Cartesian functions: 540
    Spherical Harmonics?: true
    Max angular momentum: 4

  ==> DFT Potential <==

   => Composite Functional: WB97X-D <=

    wB97X-D Hyb-GGA Exchange-Correlation Functional

    J.-D. Chai and M. Head-Gordon, Phys. Chem. Chem. Phys. 10, 6615 (2008)

    Deriv               =              1
    GGA                 =           TRUE
    Meta                =          FALSE

    Exchange Hybrid     =           TRUE
    MP2 Hybrid          =          FALSE

   => Exchange-Correlation Functionals <=

    1.0000   wB97D range-separated functional

   => Exact (HF) Exchange <=

    0.7780            HF,LR [omega = 0.2000]
    0.2220               HF

   => Molecular Quadrature <=

    Radial Scheme          =       TREUTLER
    Pruning Scheme         =           NONE
    Nuclear Scheme         =       TREUTLER

    BS radius alpha        =              1
    Pruning alpha          =              1
    Radial Points          =             99
    Spherical Points       =            590
    Total Points           =         170023
    Total Blocks           =           1396
    Max Points             =            256
    Max Functions          =            150
    Weights Tolerance      =       1.00E-15

  -Total Gradient:
     Atom            X                  Y                   Z
    ------   -----------------  -----------------  -----------------
       1        0.000061189686     0.000040638328     0.000000000000
       2        0.000012870958    -0.000073651607     0.000000000000
       3       -0.000062807550     0.000040478119     0.000000000000

*** tstop() called on c2-18.compute.lan at Tue Feb  2 15:16:16 2021
Module time:
	user time   =      19.85 seconds =       0.33 minutes
	system time =       0.08 seconds =       0.00 minutes
	total time  =         22 seconds =       0.37 minutes
Total time:
	user time   =    1544.07 seconds =      25.73 minutes
	system time =      69.21 seconds =       1.15 minutes
	total time  =       2190 seconds =      36.50 minutes

         ----------------------------------------------------------
                                   FINDIF
                     R. A. King and Jonathon Misiewicz
         ---------------------------------------------------------

  Computing second-derivative from gradients using projected,
  symmetry-adapted, cartesian coordinates.

  7 gradients passed in, including the reference geometry.
  Generating complete list of displacements from unique ones.

-------------------------------------------------------------

  ==> Harmonic Vibrational Analysis <==

  non-mass-weighted Hessian:       Symmetric? True   Hermitian? True   Lin Dep Dim?  6 (0)
  projection of translations (True) and rotations (True) removed 6 degrees of freedom (6)
  total projector:                 Symmetric? True   Hermitian? True   Lin Dep Dim?  6 (6)
  mass-weighted Hessian:           Symmetric? True   Hermitian? True   Lin Dep Dim?  6 (0)
  pre-proj  low-frequency mode:    0.0000i [cm^-1]
  pre-proj  low-frequency mode:    0.0000i [cm^-1]
  pre-proj  low-frequency mode:    0.0000  [cm^-1]
  pre-proj  low-frequency mode:    0.0000  [cm^-1]
  pre-proj  low-frequency mode:    0.0000  [cm^-1]
  pre-proj  low-frequency mode:    0.0000  [cm^-1]
  pre-proj  all modes:['0.0000i' '0.0000i' '0.0000' '0.0000' '0.0000' '0.0000' '192.2603'
 '455.7847' '472.0065']
  projected mass-weighted Hessian: Symmetric? True   Hermitian? True   Lin Dep Dim?  6 (6)
  post-proj low-frequency mode:    0.0000i [cm^-1] (TR)
  post-proj low-frequency mode:    0.0000i [cm^-1] (TR)
  post-proj low-frequency mode:    0.0000  [cm^-1] (TR)
  post-proj low-frequency mode:    0.0000  [cm^-1] (TR)
  post-proj low-frequency mode:    0.0000  [cm^-1] (TR)
  post-proj low-frequency mode:    0.0000  [cm^-1] (TR)
  post-proj  all modes:['0.0000i' '0.0000i' '0.0000' '0.0000' '0.0000' '0.0000' '192.2603'
 '455.7847' '472.0065']

  Vibration                       7                   8                   9
  Freq [cm^-1]                 192.2603            455.7847            472.0065
  Irrep                           Ap                  Ap                  Ap
  Reduced mass [u]             31.9721             31.9721             31.9721
  Force const [mDyne/A]         0.6963              3.9133              4.1968
  Turning point v=0 [a0]        0.1400              0.0909              0.0893
  RMS dev v=0 [a0 u^1/2]        0.5596              0.3634              0.3571
  Char temp [K]                276.6198            655.7726            679.1123
  ----------------------------------------------------------------------------------
      1   S               -0.38 -0.25 -0.00    0.56  0.37 -0.00   -0.42  0.64 -0.00
      2   S                0.51 -0.36  0.00   -0.06 -0.52 -0.00   -0.00 -0.46  0.00
      3   S               -0.13  0.61  0.00   -0.50  0.14 -0.00    0.42 -0.18  0.00

  ==> Thermochemistry Components <==

  Entropy, S
    Electronic S            0.000 [cal/(mol K)]        0.000 [J/(mol K)]       0.00000000 [mEh/K] (multiplicity = 1)
    Translational S        39.594 [cal/(mol K)]      165.660 [J/(mol K)]       0.06309659 [mEh/K] (mol. weight = 95.9162 [u], P = 101325.00 [Pa])
    Rotational S           25.588 [cal/(mol K)]      107.059 [J/(mol K)]       0.04077655 [mEh/K] (symmetry no. = 1)
    Vibrational S           3.716 [cal/(mol K)]       15.549 [J/(mol K)]       0.00592237 [mEh/K]
  Total S                  68.898 [cal/(mol K)]      288.268 [J/(mol K)]       0.10979551 [mEh/K]
  Correction S              0.000 [cal/(mol K)]        0.000 [J/(mol K)]       0.00000000 [mEh/K]

  Constant volume heat capacity, Cv
    Electronic Cv           0.000 [cal/(mol K)]        0.000 [J/(mol K)]       0.00000000 [mEh/K]
    Translational Cv        2.981 [cal/(mol K)]       12.472 [J/(mol K)]       0.00475022 [mEh/K]
    Rotational Cv           2.981 [cal/(mol K)]       12.472 [J/(mol K)]       0.00475022 [mEh/K]
    Vibrational Cv          4.511 [cal/(mol K)]       18.873 [J/(mol K)]       0.00718848 [mEh/K]
  Total Cv                 10.472 [cal/(mol K)]       43.817 [J/(mol K)]       0.01668892 [mEh/K]
  Correction Cv             0.000 [cal/(mol K)]        0.000 [J/(mol K)]       0.00000000 [mEh/K]

  Constant pressure heat capacity, Cp
    Electronic Cp           0.000 [cal/(mol K)]        0.000 [J/(mol K)]       0.00000000 [mEh/K]
    Translational Cp        4.968 [cal/(mol K)]       20.786 [J/(mol K)]       0.00791703 [mEh/K]
    Rotational Cp           2.981 [cal/(mol K)]       12.472 [J/(mol K)]       0.00475022 [mEh/K]
    Vibrational Cp          4.511 [cal/(mol K)]       18.873 [J/(mol K)]       0.00718848 [mEh/K]
  Total Cp                 12.460 [cal/(mol K)]       52.131 [J/(mol K)]       0.01985573 [mEh/K]
  Correction Cp             0.000 [cal/(mol K)]        0.000 [J/(mol K)]       0.00000000 [mEh/K]

  ==> Thermochemistry Energy Analysis <==

  Raw electronic energy, E0
  Total E0, Electronic energy at well bottom at 0 [K]                -1194.58103840 [Eh]

  Zero-point energy, ZPE_vib = Sum_i nu_i / 2
    Electronic ZPE          0.000 [kcal/mol]        0.000 [kJ/mol]       0.00000000 [Eh]
    Translational ZPE       0.000 [kcal/mol]        0.000 [kJ/mol]       0.00000000 [Eh]
    Rotational ZPE          0.000 [kcal/mol]        0.000 [kJ/mol]       0.00000000 [Eh]
    Vibrational ZPE         1.601 [kcal/mol]        6.699 [kJ/mol]       0.00255166 [Eh]         560.026 [cm^-1]
  Correction ZPE            1.601 [kcal/mol]        6.699 [kJ/mol]       0.00255166 [Eh]         560.026 [cm^-1]
  Total ZPE, Electronic energy at 0 [K]                              -1194.57848674 [Eh]

  Thermal Energy, E (includes ZPE)
    Electronic E            0.000 [kcal/mol]        0.000 [kJ/mol]       0.00000000 [Eh]
    Translational E         0.889 [kcal/mol]        3.718 [kJ/mol]       0.00141628 [Eh]
    Rotational E            0.889 [kcal/mol]        3.718 [kJ/mol]       0.00141628 [Eh]
    Vibrational E           2.277 [kcal/mol]        9.528 [kJ/mol]       0.00362921 [Eh]
  Correction E              4.055 [kcal/mol]       16.965 [kJ/mol]       0.00646176 [Eh]
  Total E, Electronic energy at  298.15 [K]                          -1194.57457664 [Eh]

  Enthalpy, H_trans = E_trans + k_B * T
    Electronic H            0.000 [kcal/mol]        0.000 [kJ/mol]       0.00000000 [Eh]
    Translational H         1.481 [kcal/mol]        6.197 [kJ/mol]       0.00236046 [Eh]
    Rotational H            0.889 [kcal/mol]        3.718 [kJ/mol]       0.00141628 [Eh]
    Vibrational H           2.277 [kcal/mol]        9.528 [kJ/mol]       0.00362921 [Eh]
  Correction H              4.647 [kcal/mol]       19.444 [kJ/mol]       0.00740595 [Eh]
  Total H, Enthalpy at  298.15 [K]                                   -1194.57363246 [Eh]

  Gibbs free energy, G = H - T * S
    Electronic G            0.000 [kcal/mol]        0.000 [kJ/mol]       0.00000000 [Eh]
    Translational G       -10.324 [kcal/mol]      -43.194 [kJ/mol]      -0.01645179 [Eh]
    Rotational G           -6.740 [kcal/mol]      -28.201 [kJ/mol]      -0.01074125 [Eh]
    Vibrational G           1.169 [kcal/mol]        4.892 [kJ/mol]       0.00186345 [Eh]
  Correction G            -15.895 [kcal/mol]      -66.503 [kJ/mol]      -0.02532958 [Eh]
  Total G, Free enthalpy at  298.15 [K]                              -1194.60636799 [Eh]

*** Psi4 exiting successfully. Buy a developer a beer!
