                               Psi4 1.3.2 release

  ==> Input File <==

--------------------------------------------------------------------------
memory 46 GB

basis jerome {
assign pot
assign S aug-cc-pV(T+d)Z

[pot]
spherical
****
 K  0
 S 23 1.00
    2.709796E+07     4.136110E-07
    3.592856E+06     3.860330E-06
    7.222638E+05     2.394640E-05
    1.833976E+05     1.157540E-04
    5.464812E+04     4.697010E-04
    1.830913E+04     1.673720E-03
    6.712501E+03     5.370450E-03
    2.643719E+03     1.572510E-02
    1.103835E+03     4.193360E-02
    4.836777E+02     9.987620E-02
    2.206245E+02     2.019680E-01
    1.041117E+02     3.146270E-01
    5.052749E+01     3.107540E-01
    2.485247E+01     1.421920E-01
    1.128102E+01     1.658490E-02
    5.510166E+00    -2.759760E-04
    2.706914E+00     5.158310E-04
    1.122807E+00    -2.268950E-04
    5.236385E-01     6.652980E-05
    2.355180E-01    -3.685150E-05
    4.157977E-02     1.925250E-05
    2.555456E-02    -2.108420E-05
    1.471495E-02     7.044600E-06
 S 23 1.00
    2.709796E+07    -1.188290E-07
    3.592856E+06    -1.108550E-06
    7.222638E+05    -6.881230E-06
    1.833976E+05    -3.324150E-05
    5.464812E+04    -1.350850E-04
    1.830913E+04    -4.814570E-04
    6.712501E+03    -1.552620E-03
    2.643719E+03    -4.578330E-03
    1.103835E+03    -1.247930E-02
    4.836777E+02    -3.094650E-02
    2.206245E+02    -6.855530E-02
    1.041117E+02    -1.268300E-01
    5.052749E+01    -1.745020E-01
    2.485247E+01    -9.089560E-02
    1.128102E+01     2.506960E-01
    5.510166E+00     5.589630E-01
    2.706914E+00     3.284370E-01
    1.122807E+00     3.392170E-02
    5.236385E-01    -2.100280E-03
    2.355180E-01     1.383960E-03
    4.157977E-02    -5.315630E-04
    2.555456E-02     5.770310E-04
    1.471495E-02    -1.931440E-04
 S 23 1.00
    2.709796E+07     3.917470E-08
    3.592856E+06     3.650640E-07
    7.222638E+05     2.269460E-06
    1.833976E+05     1.094290E-05
    5.464812E+04     4.457360E-05
    1.830913E+04     1.584480E-04
    6.712501E+03     5.128440E-04
    2.643719E+03     1.507690E-03
    1.103835E+03     4.136940E-03
    4.836777E+02     1.024690E-02
    2.206245E+02     2.306520E-02
    1.041117E+02     4.308900E-02
    5.052749E+01     6.238120E-02
    2.485247E+01     3.270420E-02
    1.128102E+01    -1.021980E-01
    5.510166E+00    -3.317970E-01
    2.706914E+00    -3.030100E-01
    1.122807E+00     3.098410E-01
    5.236385E-01     6.732700E-01
    2.355180E-01     2.812200E-01
    4.157977E-02     9.376240E-03
    2.555456E-02    -6.955720E-03
    1.471495E-02     2.069460E-03
 S 23 1.00
    2.709796E+07    -7.564440E-09
    3.592856E+06    -7.055390E-08
    7.222638E+05    -4.380820E-07
    1.833976E+05    -2.115540E-06
    5.464812E+04    -8.601300E-06
    1.830913E+04    -3.064440E-05
    6.712501E+03    -9.892550E-05
    2.643719E+03    -2.917760E-04
    1.103835E+03    -7.977860E-04
    4.836777E+02    -1.985820E-03
    2.206245E+02    -4.449740E-03
    1.041117E+02    -8.390260E-03
    5.052749E+01    -1.206000E-02
    2.485247E+01    -6.568410E-03
    1.128102E+01     2.061430E-02
    5.510166E+00     6.770060E-02
    2.706914E+00     6.639570E-02
    1.122807E+00    -8.237770E-02
    5.236385E-01    -1.727150E-01
    2.355180E-01    -2.310290E-01
    4.157977E-02     5.090040E-01
    2.555456E-02     3.472180E-01
    1.471495E-02     2.809620E-01
 S 1 1.00
    2.555456E-02     1.000000E+00
 S 1 1.00
    1.471495E-02     1.000000E+00
 S 1 1.00
    8.470000E-03     1.000000E+00
 P 16 1.00
    9.533309E+03     4.212010E-05
    1.852081E+03     5.068300E-04
    5.464251E+02     3.311700E-03
    1.966947E+02     1.536840E-02
    7.964112E+01     5.457060E-02
    3.488324E+01     1.473880E-01
    1.604479E+01     2.879240E-01
    7.575632E+00     3.750810E-01
    3.672548E+00     2.545160E-01
    1.771130E+00     6.059280E-02
    8.515199E-01     2.508370E-03
    4.016017E-01     6.688870E-04
    1.851933E-01    -1.486150E-04
    5.523390E-02     4.936010E-05
    2.431085E-02    -3.513850E-05
    1.080339E-02     1.171450E-05
 P 16 1.00
    9.533309E+03    -1.280760E-05
    1.852081E+03    -1.547870E-04
    5.464251E+02    -1.010940E-03
    1.966947E+02    -4.738330E-03
    7.964112E+01    -1.703260E-02
    3.488324E+01    -4.754130E-02
    1.604479E+01    -9.560810E-02
    7.575632E+00    -1.337000E-01
    3.672548E+00    -7.425060E-02
    1.771130E+00     1.646810E-01
    8.515199E-01     4.057630E-01
    4.016017E-01     4.113600E-01
    1.851933E-01     1.734240E-01
    5.523390E-02     1.253640E-02
    2.431085E-02    -3.267140E-03
    1.080339E-02     1.039680E-03
 P 16 1.00
    9.533309E+03     1.764010E-06
    1.852081E+03     2.124880E-05
    5.464251E+02     1.392500E-04
    1.966947E+02     6.509140E-04
    7.964112E+01     2.349940E-03
    3.488324E+01     6.547470E-03
    1.604479E+01     1.326270E-02
    7.575632E+00     1.848520E-02
    3.672548E+00     1.025530E-02
    1.771130E+00    -2.652150E-02
    8.515199E-01    -6.086460E-02
    4.016017E-01    -7.474220E-02
    1.851933E-01    -4.870880E-02
    5.523390E-02     2.245720E-01
    2.431085E-02     5.839280E-01
    1.080339E-02     2.980960E-01
 P 1 1.00
    5.523390E-02     1.000000E+00
 P 1 1.00
    1.080339E-02     1.000000E+00
 P 1 1.00
    4.800000E-03     1.000000E+00
 D 6 1.00
    5.670903E+00     8.285900E-03
    1.459042E+00     2.332530E-02
    5.431827E-01     4.878080E-02
    1.346875E-01     7.349020E-02
    5.516013E-02     2.387630E-01
    1.501876E-02     8.253200E-01
 D 1 1.00
    5.516013E-02     1.000000E+00
 D 1 1.00
    1.501876E-02     1.000000E+00
 D 1 1.00
    6.010000E-03     1.000000E+00
 F 1 1.00
    8.493750E-02     1.000000E+00
 F 1 1.00
    3.398000E-02     1.000000E+00
 ****
}

molecule  {
0 2
S   -1.195421958694    1.038541304088    0.000000000000
S   -1.194961993018   -1.038329998164    0.000000000000
K    1.961454202642   -0.000173389255    0.000000000000
}
set {
basis jerome
reference uhf
g_convergence gau_verytight
e_convergence 10
scf_type pk
freeze_core true
geom_maxiter 100
}

set ccenergy {
e_convergence 10
r_convergence 10
}

e = energy('ccsd(t)')

print_out('Stephenergy {}'.format(e))

--------------------------------------------------------------------------

    Molecular point group: cs

    Geometry (in Angstrom), charge = 0, multiplicity = 2:

       Center              X                  Y                   Z               Mass
    ------------   -----------------  -----------------  -----------------  -----------------
         S           -1.195421958694     1.038541304088     0.000000000000    31.972071174400
         S           -1.194961993018    -1.038329998164     0.000000000000    31.972071174400
         K            1.961454202642    -0.000173389255     0.000000000000    38.963706486400

  Charge       = 0
  Multiplicity = 2
  Basis Set: JEROME
    Blend: AUG-CC-PV(T+D)Z + POT

    Orbital Energies [Eh]
    ---------------------

    Alpha Occupied:

       1Ap  -133.559606     2Ap   -91.906664     3Ap   -91.906634
       4Ap   -14.515863     1App  -11.545880     5Ap   -11.545797
       6Ap   -11.545724     7Ap    -8.904172     8Ap    -8.904000
       2App   -6.593164     3App   -6.593125     9Ap    -6.583051
      10Ap    -6.582683    11Ap    -6.581499    12Ap    -6.581464
      13Ap    -1.773832     4App   -0.982928    14Ap    -0.981712
      15Ap    -0.981371    16Ap    -0.944596    17Ap    -0.757581
       5App   -0.414040    18Ap    -0.402842    19Ap    -0.386187
       6App   -0.296054    20Ap    -0.260639

    Alpha Virtual:

      21Ap    -0.019889     7App    0.002175    22Ap     0.002633
      23Ap     0.005697    24Ap     0.016458     8App    0.017142
      25Ap     0.017265     9App    0.019898    26Ap     0.020826
      27Ap     0.022363    10App    0.022864    28Ap     0.028726
      29Ap     0.032859    30Ap     0.051014    11App    0.051144
      31Ap     0.055476    12App    0.058851    32Ap     0.061866
      13App    0.073591    33Ap     0.074490    34Ap     0.088215
      35Ap     0.104509    36Ap     0.108406    37Ap     0.125506
      14App    0.125676    38Ap     0.128647    39Ap     0.128783
      15App    0.129773    16App    0.133152    40Ap     0.133834
      41Ap     0.150447    17App    0.152727    42Ap     0.153539
      18App    0.167036    43Ap     0.170547    44Ap     0.174859
      19App    0.178466    20App    0.186412    45Ap     0.206775
      46Ap     0.207628    47Ap     0.221474    21App    0.233535
      48Ap     0.244647    49Ap     0.267904    50Ap     0.310692
      51Ap     0.310929    22App    0.337530    52Ap     0.350664
      53Ap     0.362681    23App    0.375779    24App    0.381796
      54Ap     0.383557    25App    0.386413    55Ap     0.391642
      56Ap     0.391649    26App    0.394199    57Ap     0.406264
      27App    0.407391    58Ap     0.428297    59Ap     0.431067
      60Ap     0.439853    28App    0.452906    29App    0.456741
      61Ap     0.463046    30App    0.466748    62Ap     0.488122
      63Ap     0.514888    64Ap     0.537787    31App    0.666921
      32App    0.703395    65Ap     0.709161    33App    0.711254
      66Ap     0.730743    67Ap     0.746969    68Ap     0.785621
      34App    0.801236    69Ap     0.814135    70Ap     0.815405
      35App    0.850865    71Ap     0.856537    72Ap     0.870935
      36App    0.892207    73Ap     0.909482    37App    0.914804
      74Ap     0.947828    75Ap     0.948277    76Ap     0.962282
      38App    1.012367    77Ap     1.019015    39App    1.048304
      78Ap     1.052855    79Ap     1.078959    40App    1.161798
      80Ap     1.197098    81Ap     1.197744    41App    1.202541
      82Ap     1.218655    42App    1.363514    83Ap     1.395154
      84Ap     1.462066    85Ap     1.677239    43App    2.031400
      86Ap     2.036055    44App    2.064613    87Ap     2.067235
      45App    2.078999    88Ap     2.096724    89Ap     2.132238
      46App    2.214695    90Ap     2.284169    47App    2.287166
      91Ap     2.291884    92Ap     2.312070    93Ap     2.372212
      48App    2.378887    94Ap     2.413091    49App    2.421748
      95Ap     2.450573    96Ap     2.473469    50App    2.485720
      51App    2.504890    52App    2.561298    97Ap     2.581542
      53App    2.584942    98Ap     2.668834    99Ap     2.685607
     100Ap     2.707547   101Ap     2.726506    54App    2.867701
     102Ap     2.898883   103Ap     3.989793   104Ap     4.955568
     105Ap     5.750142    55App    7.416977   106Ap     7.419752
     107Ap     7.436038    56App    7.436319    57App    7.438720
     108Ap     7.461725    58App    7.509640   109Ap     7.532344
     110Ap     7.597129   111Ap     7.607835

    Beta Occupied:

       1Ap  -133.559629     2Ap   -91.901073     3Ap   -91.901047
       4Ap   -14.515893     1App  -11.545914     5Ap   -11.545832
       6Ap   -11.545754     7Ap    -8.898096     8Ap    -8.897887
       9Ap    -6.580350    10Ap    -6.579968    11Ap    -6.577956
      12Ap    -6.577924     2App   -6.568689     3App   -6.568649
      13Ap    -1.773994     4App   -0.983088    14Ap    -0.981859
      15Ap    -0.980389    16Ap    -0.906324    17Ap    -0.686970
      18Ap    -0.386923    19Ap    -0.377657     5App   -0.289307
      20Ap    -0.247641

    Beta Virtual:

      21Ap    -0.019900     6App    0.002205    22Ap     0.002646
      23Ap     0.005685    24Ap     0.016453     7App    0.016971
      25Ap     0.017266     8App    0.019940    26Ap     0.020851
      27Ap     0.022412     9App    0.022957    28Ap     0.028727
      29Ap     0.032769    10App    0.046990    30Ap     0.050982
      31Ap     0.055745    11App    0.059305    32Ap     0.061833
      12App    0.065043    13App    0.073775    33Ap     0.074684
      34Ap     0.087877    35Ap     0.104292    36Ap     0.110113
      37Ap     0.125707    14App    0.125792    38Ap     0.128608
      39Ap     0.129635    15App    0.129696    40Ap     0.133879
      16App    0.134983    41Ap     0.150305    42Ap     0.153792
      17App    0.164176    18App    0.171846    43Ap     0.172106
      44Ap     0.174538    19App    0.183762    20App    0.187130
      45Ap     0.207584    46Ap     0.212254    47Ap     0.224281
      21App    0.233754    48Ap     0.245262    49Ap     0.267076
      50Ap     0.313751    51Ap     0.317313    52Ap     0.351908
      22App    0.356529    53Ap     0.366854    54Ap     0.383867
      23App    0.384548    24App    0.388654    25App    0.389673
      55Ap     0.391547    56Ap     0.395651    26App    0.396049
      27App    0.407435    57Ap     0.408617    58Ap     0.430947
      59Ap     0.433730    60Ap     0.442869    28App    0.462589
      61Ap     0.468822    29App    0.470017    30App    0.475477
      62Ap     0.489006    63Ap     0.518494    64Ap     0.538514
      31App    0.686397    65Ap     0.716913    66Ap     0.736523
      32App    0.739674    33App    0.741865    67Ap     0.749425
      68Ap     0.798372    69Ap     0.814412    34App    0.818277
      70Ap     0.831420    71Ap     0.868840    35App    0.885480
      72Ap     0.895468    73Ap     0.915097    36App    0.921883
      37App    0.925274    74Ap     0.951538    75Ap     0.960403
      76Ap     0.966108    38App    1.024788    77Ap     1.030054
      78Ap     1.054774    39App    1.058880    79Ap     1.085301
      40App    1.173974    80Ap     1.196803    81Ap     1.207217
      41App    1.209108    82Ap     1.220744    42App    1.379682
      83Ap     1.397186    84Ap     1.474965    85Ap     1.692664
      43App    2.046621    86Ap     2.050774    44App    2.079657
      87Ap     2.082257    45App    2.094925    88Ap     2.098894
      89Ap     2.134438    46App    2.236753    90Ap     2.289014
      91Ap     2.294035    47App    2.303945    92Ap     2.314856
      93Ap     2.385245    48App    2.391601    94Ap     2.425149
      49App    2.454115    95Ap     2.461910    96Ap     2.495824
      50App    2.508725    51App    2.531946    52App    2.585844
      97Ap     2.597736    53App    2.601217    98Ap     2.674357
      99Ap     2.690107   100Ap     2.712027   101Ap     2.732316
      54App    2.888801   102Ap     2.901594   103Ap     3.993294
     104Ap     4.966736   105Ap     5.760482    55App    7.423174
     106Ap     7.426075   107Ap     7.442569    56App    7.442840
      57App    7.444777   108Ap     7.462802    58App    7.515598
     109Ap     7.533224   110Ap     7.599069   111Ap     7.609719

    Final Occupation by Irrep:
             Ap   App
    DOCC [    20,    5 ]
    SOCC [     0,    1 ]

  @UHF Final Energy: -1394.31347067813522

   => Energetics <=

    Nuclear Repulsion Energy =            162.0477820214680094
    One-Electron Energy =               -2249.3125858116777636
    Two-Electron Energy =                 692.9513331120745079
    Total Energy =                      -1394.3134706781354453

  UHF NO Occupations:
  HONO-2 :   20 Ap 1.9974860
  HONO-1 :    5App 1.9869066
  HONO-0 :    6App 1.0000000
  LUNO+0 :    7App 0.0130934
  LUNO+1 :   21 Ap 0.0025140
  LUNO+2 :   22 Ap 0.0022669
  LUNO+3 :   23 Ap 0.0003116

Computation Completed

Properties will be evaluated at   0.000000,   0.000000,   0.000000 [a0]

Properties computed using the SCF density matrix

  Nuclear Dipole Moment: [e a0]
     X:    -1.8491      Y:     0.0002      Z:     0.0000

  Electronic Dipole Moment: [e a0]
     X:     6.6337      Y:    -0.0002      Z:     0.0000

  Dipole Moment: [e a0]
     X:     4.7846      Y:    -0.0000      Z:     0.0000     Total:     4.7846

  Dipole Moment: [D]
     X:    12.1612      Y:    -0.0001      Z:     0.0000     Total:    12.1612

*** tstop() called on c4-17.compute.lan at Fri Mar  5 18:13:38 2021
Module time:
	user time   =     219.61 seconds =       3.66 minutes
	system time =       2.01 seconds =       0.03 minutes
	total time  =         61 seconds =       1.02 minutes
Total time:
	user time   =     219.61 seconds =       3.66 minutes
	system time =       2.01 seconds =       0.03 minutes
	total time  =         61 seconds =       1.02 minutes
 MINTS: Wrapper to libmints.
   by Justin Turney

   Calculation information:
      Number of threads:                12
      Number of atoms:                   3
      Number of AO shells:              53
      Number of SO shells:              53
      Number of primitives:            287
      Number of atomic orbitals:       199
      Number of basis functions:       169

      Number of irreps:                  2
      Integral cutoff                 0.00e+00
      Number of functions per irrep: [ 111   58 ]

 OEINTS: Overlap, kinetic, potential, dipole, and quadrupole integrals
         stored in file 35.

      Computing two-electron integrals...done
      Computed 51037585 non-zero two-electron integrals.
        Stored in file 33.

*** tstart() called on c4-17.compute.lan
*** at Fri Mar  5 18:15:03 2021

	Wfn Parameters:
	--------------------
	Wavefunction         = CCSD_T
	Number of irreps     = 2
	Number of MOs        = 169
	Number of active MOs = 150
	AO-Basis             = NONE
	Semicanonical        = false
	Reference            = UHF
	Print Level          = 1

	IRREP	# MOs	# FZDC	# DOCC	# SOCC	# VIRT	# FZVR
	-----	-----	------	------	------	------	------
	 Ap	   111	    15	    5	    0	    91	    0
	 App	   58	    4	    1	    1	    52	    0
	Transforming integrals...
	IWL integrals will be deleted.
	(OO|OO)...
	Presorting SO-basis two-electron integrals.
	Sorting File: SO Ints (nn|nn) nbuckets = 1
	Transforming the one-electron integrals and constructing Fock matrices
	Starting AA/AB first half-transformation.
	Sorting AA/AB half-transformed integrals.
	Starting BB first half-transformation.
	Sorting BB half-transformed integrals.
	First half integral transformation complete.
	Starting AA second half-transformation.
	Starting AB second half-transformation.
	Starting BB second half-transformation.
	Two-electron integral transformation complete.
	(OO|OV)...
	Starting AA second half-transformation.
	Starting AB second half-transformation.
	Starting BB second half-transformation.
	Two-electron integral transformation complete.
	(OO|VV)...
	Starting AA second half-transformation.
	Starting AB second half-transformation.
	Starting BB second half-transformation.
	Two-electron integral transformation complete.
	(OV|OO)...
	Starting AA/AB first half-transformation.
	Sorting AA/AB half-transformed integrals.
	Starting BB first half-transformation.
	Sorting BB half-transformed integrals.
	First half integral transformation complete.
	Starting AA second half-transformation.
	Starting AB second half-transformation.
	Starting BB second half-transformation.
	Two-electron integral transformation complete.
	(OV|OV)...
	Starting AA second half-transformation.
	Starting AB second half-transformation.
	Starting BB second half-transformation.
	Two-electron integral transformation complete.
	(OV|VV)...
	Starting AA second half-transformation.
	Starting AB second half-transformation.
	Starting BB second half-transformation.
	Two-electron integral transformation complete.
	(VV|OO)...
	Starting AA/AB first half-transformation.
	Sorting AA/AB half-transformed integrals.
	Starting BB first half-transformation.
	Sorting BB half-transformed integrals.
	First half integral transformation complete.
	Starting AA second half-transformation.
	Starting AB second half-transformation.
	Starting BB second half-transformation.
	Two-electron integral transformation complete.
	(VV|OV)...
	Starting AA second half-transformation.
	Starting AB second half-transformation.
	Starting BB second half-transformation.
	Two-electron integral transformation complete.
	(VV|VV)...
	Starting AA second half-transformation.
	Starting AB second half-transformation.
	Starting BB second half-transformation.
	Two-electron integral transformation complete.
	Frozen core energy     =  -1525.24571153821807

	Size of irrep 0 of <AB|CD> integrals:     29.387 (MW) /    235.098 (MB)
	Size of irrep 1 of <AB|CD> integrals:     22.392 (MW) /    179.135 (MB)
	Total:                                    51.779 (MW) /    414.233 (MB)

	Size of irrep 0 of <ab|cd> integrals:     29.954 (MW) /    239.630 (MB)
	Size of irrep 1 of <ab|cd> integrals:     23.261 (MW) /    186.091 (MB)
	Total:                                    53.215 (MW) /    425.720 (MB)

	Size of irrep 0 of <Ab|Cd> integrals:    121.815 (MW) /    974.523 (MB)
	Size of irrep 1 of <Ab|Cd> integrals:     91.298 (MW) /    730.384 (MB)
	Total:                                   213.113 (MW) /   1704.907 (MB)

	Size of irrep 0 of <IA|BC> integrals:      6.141 (MW) /     49.125 (MB)
	Size of irrep 1 of <IA|BC> integrals:      4.183 (MW) /     33.465 (MB)
	Total:                                    10.324 (MW) /     82.590 (MB)

	Size of irrep 0 of <ia|bc> integrals:      5.634 (MW) /     45.070 (MB)
	Size of irrep 1 of <ia|bc> integrals:      3.434 (MW) /     27.472 (MB)
	Total:                                     9.068 (MW) /     72.542 (MB)

	Size of irrep 0 of <Ia|Bc> integrals:      6.192 (MW) /     49.534 (MB)
	Size of irrep 1 of <Ia|Bc> integrals:      4.271 (MW) /     34.169 (MB)
	Total:                                    10.463 (MW) /     83.703 (MB)

	Size of irrep 0 of <iA|bC> integrals:      5.596 (MW) /     44.766 (MB)
	Size of irrep 1 of <iA|bC> integrals:      3.354 (MW) /     26.830 (MB)
	Total:                                     8.950 (MW) /     71.597 (MB)

	Size of irrep 0 of tIjAb amplitudes:       0.298 (MW) /      2.384 (MB)
	Size of irrep 1 of tIjAb amplitudes:       0.143 (MW) /      1.147 (MB)
	Total:                                     0.441 (MW) /      3.531 (MB)

	Nuclear Rep. energy          =    162.04778202146801
	SCF energy                   =  -1394.31347067813522
	One-electron energy          =    -55.87432346924441
	Two-electron (AA) energy     =      6.08195462348693
	Two-electron (BB) energy     =      4.34729855659772
	Two-electron (AB) energy     =     14.32952912774759
	Two-electron energy          =     24.75878230783224
	Reference energy             =  -1394.31347067816228

*** tstop() called on c4-17.compute.lan at Fri Mar  5 18:17:00 2021
Module time:
	user time   =     324.00 seconds =       5.40 minutes
	system time =      30.04 seconds =       0.50 minutes
	total time  =        117 seconds =       1.95 minutes
Total time:
	user time   =     630.49 seconds =      10.51 minutes
	system time =      33.33 seconds =       0.56 minutes
	total time  =        263 seconds =       4.38 minutes
            **************************
            *                        *
            *        CCENERGY        *
            *                        *
            **************************

    Nuclear Rep. energy (wfn)     =  162.047782021468009
    SCF energy          (wfn)     = -1394.313470678135218
    Reference energy    (file100) = -1394.313470678162275

    Input parameters:
    -----------------
    Wave function   =     CCSD_T
    Reference wfn   =     UHF
    Brueckner       =     No
    Memory (Mbytes) =     46000.0
    Maxiter         =     50
    R_Convergence   =     1.0e-10
    E_Convergence   =     1.0e-10
    Restart         =     Yes
    DIIS            =     Yes
    AO Basis        =     NONE
    ABCD            =     NEW
    Cache Level     =     2
    Cache Type      =     LRU
    Print Level     =     1
    Num. of threads =     12
    # Amps to Print =     10
    Print MP2 Amps? =     No
    Analyze T2 Amps =     No
    Print Pair Ener =     No
    Local CC        =     No
    SCS-MP2         =     False
    SCSN-MP2        =     False
    SCS-CCSD        =     False

MP2 correlation energy -0.3450446776910169
                Solving CC Amplitude Equations
                ------------------------------
  Iter             Energy              RMS        T1Diag      D1Diag    New D1Diag    D2Diag
  ----     ---------------------    ---------   ----------  ----------  ----------   --------
     0        -0.345044677691017    0.000e+00    0.000000    0.000000    0.000000    0.000000
     1        -0.358610680745314    8.245e-02    0.015917    0.000000    0.000000    0.000000
     2        -0.369270244258214    2.598e-02    0.018541    0.000000    0.000000    0.000000
     3        -0.371456797509204    1.235e-02    0.022077    0.000000    0.000000    0.000000
     4        -0.371341377151383    3.433e-03    0.023155    0.000000    0.000000    0.000000
     5        -0.371306521461656    1.413e-03    0.023436    0.000000    0.000000    0.000000
     6        -0.371300145141497    6.111e-04    0.023523    0.000000    0.000000    0.000000
     7        -0.371296886663883    3.086e-04    0.023551    0.000000    0.000000    0.000000
     8        -0.371298020144293    1.659e-04    0.023555    0.000000    0.000000    0.000000
     9        -0.371301671164336    9.463e-05    0.023557    0.000000    0.000000    0.000000
    10        -0.371300248852573    5.120e-05    0.023558    0.000000    0.000000    0.000000
    11        -0.371300073272272    2.253e-05    0.023558    0.000000    0.000000    0.000000
    12        -0.371299699239638    1.095e-05    0.023559    0.000000    0.000000    0.000000
    13        -0.371299518240756    5.452e-06    0.023558    0.000000    0.000000    0.000000
    14        -0.371299513664083    2.985e-06    0.023558    0.000000    0.000000    0.000000
    15        -0.371299517946953    1.868e-06    0.023558    0.000000    0.000000    0.000000
    16        -0.371299517940746    1.049e-06    0.023558    0.000000    0.000000    0.000000

      * MP2 total energy                      = -1394.658515355853297
      * CCSD total energy                     = -1394.684770200790126
      * CCSD(T) total energy                     = -1394.706862740693850
*** Psi4 exiting successfully. Buy a developer a beer!
