                               Psi4 1.3.2 release

  ==> Input File <==

--------------------------------------------------------------------------
memory 46 GB

basis jerome {
assign pot
assign S aug-cc-pV(T+d)Z

[pot]
spherical
****
 K  0
 S 23 1.00
    2.709796E+07     4.136110E-07
    3.592856E+06     3.860330E-06
    7.222638E+05     2.394640E-05
    1.833976E+05     1.157540E-04
    5.464812E+04     4.697010E-04
    1.830913E+04     1.673720E-03
    6.712501E+03     5.370450E-03
    2.643719E+03     1.572510E-02
    1.103835E+03     4.193360E-02
    4.836777E+02     9.987620E-02
    2.206245E+02     2.019680E-01
    1.041117E+02     3.146270E-01
    5.052749E+01     3.107540E-01
    2.485247E+01     1.421920E-01
    1.128102E+01     1.658490E-02
    5.510166E+00    -2.759760E-04
    2.706914E+00     5.158310E-04
    1.122807E+00    -2.268950E-04
    5.236385E-01     6.652980E-05
    2.355180E-01    -3.685150E-05
    4.157977E-02     1.925250E-05
    2.555456E-02    -2.108420E-05
    1.471495E-02     7.044600E-06
 S 23 1.00
    2.709796E+07    -1.188290E-07
    3.592856E+06    -1.108550E-06
    7.222638E+05    -6.881230E-06
    1.833976E+05    -3.324150E-05
    5.464812E+04    -1.350850E-04
    1.830913E+04    -4.814570E-04
    6.712501E+03    -1.552620E-03
    2.643719E+03    -4.578330E-03
    1.103835E+03    -1.247930E-02
    4.836777E+02    -3.094650E-02
    2.206245E+02    -6.855530E-02
    1.041117E+02    -1.268300E-01
    5.052749E+01    -1.745020E-01
    2.485247E+01    -9.089560E-02
    1.128102E+01     2.506960E-01
    5.510166E+00     5.589630E-01
    2.706914E+00     3.284370E-01
    1.122807E+00     3.392170E-02
    5.236385E-01    -2.100280E-03
    2.355180E-01     1.383960E-03
    4.157977E-02    -5.315630E-04
    2.555456E-02     5.770310E-04
    1.471495E-02    -1.931440E-04
 S 23 1.00
    2.709796E+07     3.917470E-08
    3.592856E+06     3.650640E-07
    7.222638E+05     2.269460E-06
    1.833976E+05     1.094290E-05
    5.464812E+04     4.457360E-05
    1.830913E+04     1.584480E-04
    6.712501E+03     5.128440E-04
    2.643719E+03     1.507690E-03
    1.103835E+03     4.136940E-03
    4.836777E+02     1.024690E-02
    2.206245E+02     2.306520E-02
    1.041117E+02     4.308900E-02
    5.052749E+01     6.238120E-02
    2.485247E+01     3.270420E-02
    1.128102E+01    -1.021980E-01
    5.510166E+00    -3.317970E-01
    2.706914E+00    -3.030100E-01
    1.122807E+00     3.098410E-01
    5.236385E-01     6.732700E-01
    2.355180E-01     2.812200E-01
    4.157977E-02     9.376240E-03
    2.555456E-02    -6.955720E-03
    1.471495E-02     2.069460E-03
 S 23 1.00
    2.709796E+07    -7.564440E-09
    3.592856E+06    -7.055390E-08
    7.222638E+05    -4.380820E-07
    1.833976E+05    -2.115540E-06
    5.464812E+04    -8.601300E-06
    1.830913E+04    -3.064440E-05
    6.712501E+03    -9.892550E-05
    2.643719E+03    -2.917760E-04
    1.103835E+03    -7.977860E-04
    4.836777E+02    -1.985820E-03
    2.206245E+02    -4.449740E-03
    1.041117E+02    -8.390260E-03
    5.052749E+01    -1.206000E-02
    2.485247E+01    -6.568410E-03
    1.128102E+01     2.061430E-02
    5.510166E+00     6.770060E-02
    2.706914E+00     6.639570E-02
    1.122807E+00    -8.237770E-02
    5.236385E-01    -1.727150E-01
    2.355180E-01    -2.310290E-01
    4.157977E-02     5.090040E-01
    2.555456E-02     3.472180E-01
    1.471495E-02     2.809620E-01
 S 1 1.00
    2.555456E-02     1.000000E+00
 S 1 1.00
    1.471495E-02     1.000000E+00
 S 1 1.00
    8.470000E-03     1.000000E+00
 P 16 1.00
    9.533309E+03     4.212010E-05
    1.852081E+03     5.068300E-04
    5.464251E+02     3.311700E-03
    1.966947E+02     1.536840E-02
    7.964112E+01     5.457060E-02
    3.488324E+01     1.473880E-01
    1.604479E+01     2.879240E-01
    7.575632E+00     3.750810E-01
    3.672548E+00     2.545160E-01
    1.771130E+00     6.059280E-02
    8.515199E-01     2.508370E-03
    4.016017E-01     6.688870E-04
    1.851933E-01    -1.486150E-04
    5.523390E-02     4.936010E-05
    2.431085E-02    -3.513850E-05
    1.080339E-02     1.171450E-05
 P 16 1.00
    9.533309E+03    -1.280760E-05
    1.852081E+03    -1.547870E-04
    5.464251E+02    -1.010940E-03
    1.966947E+02    -4.738330E-03
    7.964112E+01    -1.703260E-02
    3.488324E+01    -4.754130E-02
    1.604479E+01    -9.560810E-02
    7.575632E+00    -1.337000E-01
    3.672548E+00    -7.425060E-02
    1.771130E+00     1.646810E-01
    8.515199E-01     4.057630E-01
    4.016017E-01     4.113600E-01
    1.851933E-01     1.734240E-01
    5.523390E-02     1.253640E-02
    2.431085E-02    -3.267140E-03
    1.080339E-02     1.039680E-03
 P 16 1.00
    9.533309E+03     1.764010E-06
    1.852081E+03     2.124880E-05
    5.464251E+02     1.392500E-04
    1.966947E+02     6.509140E-04
    7.964112E+01     2.349940E-03
    3.488324E+01     6.547470E-03
    1.604479E+01     1.326270E-02
    7.575632E+00     1.848520E-02
    3.672548E+00     1.025530E-02
    1.771130E+00    -2.652150E-02
    8.515199E-01    -6.086460E-02
    4.016017E-01    -7.474220E-02
    1.851933E-01    -4.870880E-02
    5.523390E-02     2.245720E-01
    2.431085E-02     5.839280E-01
    1.080339E-02     2.980960E-01
 P 1 1.00
    5.523390E-02     1.000000E+00
 P 1 1.00
    1.080339E-02     1.000000E+00
 P 1 1.00
    4.800000E-03     1.000000E+00
 D 6 1.00
    5.670903E+00     8.285900E-03
    1.459042E+00     2.332530E-02
    5.431827E-01     4.878080E-02
    1.346875E-01     7.349020E-02
    5.516013E-02     2.387630E-01
    1.501876E-02     8.253200E-01
 D 1 1.00
    5.516013E-02     1.000000E+00
 D 1 1.00
    1.501876E-02     1.000000E+00
 D 1 1.00
    6.010000E-03     1.000000E+00
 F 1 1.00
    8.493750E-02     1.000000E+00
 F 1 1.00
    3.398000E-02     1.000000E+00
 ****
}

molecule  {
0 2
S   -1.195442717505    1.038562792419    0.000000000000
S   -1.195573831545   -1.038542863235    0.000000000000
K    1.961973286912   -0.000016353098    0.000000000000
}
set {
basis jerome
reference uhf
g_convergence gau_verytight
e_convergence 10
scf_type pk
freeze_core true
geom_maxiter 100
}

set ccenergy {
e_convergence 10
r_convergence 10
}

e = energy('ccsd(t)')

print_out('Stephenergy {}'.format(e))

--------------------------------------------------------------------------

    Molecular point group: cs

    Geometry (in Angstrom), charge = 0, multiplicity = 2:

       Center              X                  Y                   Z               Mass
    ------------   -----------------  -----------------  -----------------  -----------------
         S           -1.195442717505     1.038562792419     0.000000000000    31.972071174400
         S           -1.195573831545    -1.038542863235     0.000000000000    31.972071174400
         K            1.961973286912    -0.000016353098     0.000000000000    38.963706486400

  Charge       = 0
  Multiplicity = 2
  Basis Set: JEROME
    Blend: AUG-CC-PV(T+D)Z + POT

    Orbital Energies [Eh]
    ---------------------

    Alpha Occupied:

       1Ap  -133.559665     2Ap   -91.906650     3Ap   -91.906638
       4Ap   -14.515921     1App  -11.545938     5Ap   -11.545855
       6Ap   -11.545781     7Ap    -8.904162     8Ap    -8.903992
       2App   -6.593147     3App   -6.593125     9Ap    -6.583041
      10Ap    -6.582674    11Ap    -6.581484    12Ap    -6.581460
      13Ap    -1.773885     4App   -0.982979    14Ap    -0.981763
      15Ap    -0.981403    16Ap    -0.944536    17Ap    -0.757582
       5App   -0.413994    18Ap    -0.402789    19Ap    -0.386137
       6App   -0.296055    20Ap    -0.260632

    Alpha Virtual:

      21Ap    -0.019904     7App    0.002170    22Ap     0.002628
      23Ap     0.005691    24Ap     0.016455     8App    0.017140
      25Ap     0.017263     9App    0.019892    26Ap     0.020819
      27Ap     0.022363    10App    0.022865    28Ap     0.028727
      29Ap     0.032852    30Ap     0.051008    11App    0.051136
      31Ap     0.055474    12App    0.058848    32Ap     0.061863
      13App    0.073580    33Ap     0.074478    34Ap     0.088213
      35Ap     0.104490    36Ap     0.108396    37Ap     0.125498
      14App    0.125668    38Ap     0.128645    39Ap     0.128774
      15App    0.129773    16App    0.133147    40Ap     0.133831
      41Ap     0.150435    17App    0.152713    42Ap     0.153541
      18App    0.167035    43Ap     0.170546    44Ap     0.174850
      19App    0.178456    20App    0.186386    45Ap     0.206745
      46Ap     0.207615    47Ap     0.221450    21App    0.233517
      48Ap     0.244600    49Ap     0.267873    50Ap     0.310678
      51Ap     0.310870    22App    0.337536    52Ap     0.350657
      53Ap     0.362739    23App    0.375746    24App    0.381773
      54Ap     0.383534    25App    0.386386    55Ap     0.391612
      56Ap     0.391681    26App    0.394158    57Ap     0.406255
      27App    0.407356    58Ap     0.428263    59Ap     0.431045
      60Ap     0.439834    28App    0.452915    29App    0.456756
      61Ap     0.462989    30App    0.466724    62Ap     0.488088
      63Ap     0.514846    64Ap     0.537792    31App    0.666889
      32App    0.703419    65Ap     0.709188    33App    0.711249
      66Ap     0.730756    67Ap     0.747024    68Ap     0.785654
      34App    0.801255    69Ap     0.814089    70Ap     0.815376
      35App    0.850861    71Ap     0.856562    72Ap     0.870943
      36App    0.892190    73Ap     0.909452    37App    0.914797
      74Ap     0.947771    75Ap     0.948240    76Ap     0.962215
      38App    1.012342    77Ap     1.018973    39App    1.048275
      78Ap     1.052794    79Ap     1.078920    40App    1.161771
      80Ap     1.197054    81Ap     1.197683    41App    1.202522
      82Ap     1.218592    42App    1.363503    83Ap     1.395138
      84Ap     1.461995    85Ap     1.677220    43App    2.031404
      86Ap     2.036063    44App    2.064598    87Ap     2.067255
      45App    2.078995    88Ap     2.096725    89Ap     2.132320
      46App    2.214713    90Ap     2.284223    47App    2.287211
      91Ap     2.291841    92Ap     2.312114    93Ap     2.372268
      48App    2.378960    94Ap     2.413103    49App    2.421760
      95Ap     2.450555    96Ap     2.473461    50App    2.485707
      51App    2.504861    52App    2.561210    97Ap     2.581475
      53App    2.584878    98Ap     2.668752    99Ap     2.685589
     100Ap     2.707460   101Ap     2.726229    54App    2.867551
     102Ap     2.898745   103Ap     3.989526   104Ap     4.955216
     105Ap     5.750088    55App    7.416982   106Ap     7.419761
     107Ap     7.436047    56App    7.436320    57App    7.438714
     108Ap     7.461734    58App    7.509614   109Ap     7.532303
     110Ap     7.597045   111Ap     7.607897

    Beta Occupied:

       1Ap  -133.559688     2Ap   -91.901061     3Ap   -91.901050
       4Ap   -14.515951     1App  -11.545972     5Ap   -11.545890
       6Ap   -11.545812     7Ap    -8.898086     8Ap    -8.897878
       9Ap    -6.580340    10Ap    -6.579959    11Ap    -6.577942
      12Ap    -6.577919     2App   -6.568677     3App   -6.568641
      13Ap    -1.774046     4App   -0.983139    14Ap    -0.981910
      15Ap    -0.980432    16Ap    -0.906243    17Ap    -0.686969
      18Ap    -0.386875    19Ap    -0.377605     5App   -0.289243
      20Ap    -0.247633

    Beta Virtual:

      21Ap    -0.019915     6App    0.002200    22Ap     0.002641
      23Ap     0.005679    24Ap     0.016450     7App    0.016969
      25Ap     0.017264     8App    0.019933    26Ap     0.020844
      27Ap     0.022412     9App    0.022958    28Ap     0.028728
      29Ap     0.032762    10App    0.046986    30Ap     0.050975
      31Ap     0.055743    11App    0.059302    32Ap     0.061829
      12App    0.065037    13App    0.073763    33Ap     0.074672
      34Ap     0.087875    35Ap     0.104273    36Ap     0.110104
      37Ap     0.125699    14App    0.125784    38Ap     0.128607
      39Ap     0.129625    15App    0.129696    40Ap     0.133876
      16App    0.134978    41Ap     0.150294    42Ap     0.153792
      17App    0.164148    18App    0.171849    43Ap     0.172107
      44Ap     0.174530    19App    0.183763    20App    0.187100
      45Ap     0.207571    46Ap     0.212225    47Ap     0.224255
      21App    0.233735    48Ap     0.245214    49Ap     0.267044
      50Ap     0.313690    51Ap     0.317296    52Ap     0.351904
      22App    0.356525    53Ap     0.366908    54Ap     0.383845
      23App    0.384519    24App    0.388628    25App    0.389641
      55Ap     0.391516    56Ap     0.395683    26App    0.396012
      27App    0.407399    57Ap     0.408612    58Ap     0.430923
      59Ap     0.433691    60Ap     0.442854    28App    0.462602
      61Ap     0.468771    29App    0.470028    30App    0.475454
      62Ap     0.488970    63Ap     0.518454    64Ap     0.538518
      31App    0.686386    65Ap     0.716940    66Ap     0.736536
      32App    0.739679    33App    0.741860    67Ap     0.749469
      68Ap     0.798430    69Ap     0.814358    34App    0.818300
      70Ap     0.831390    71Ap     0.868875    35App    0.885478
      72Ap     0.895483    73Ap     0.915048    36App    0.921877
      37App    0.925260    74Ap     0.951480    75Ap     0.960344
      76Ap     0.966063    38App    1.024763    77Ap     1.030012
      78Ap     1.054723    39App    1.058850    79Ap     1.085262
      40App    1.173947    80Ap     1.196758    81Ap     1.207149
      41App    1.209089    82Ap     1.220686    42App    1.379669
      83Ap     1.397170    84Ap     1.474891    85Ap     1.692648
      43App    2.046627    86Ap     2.050782    44App    2.079644
      87Ap     2.082279    45App    2.094923    88Ap     2.098898
      89Ap     2.134519    46App    2.236767    90Ap     2.289067
      91Ap     2.293992    47App    2.303989    92Ap     2.314903
      93Ap     2.385305    48App    2.391676    94Ap     2.425155
      49App    2.454135    95Ap     2.461897    96Ap     2.495817
      50App    2.508714    51App    2.531913    52App    2.585765
      97Ap     2.597669    53App    2.601149    98Ap     2.674278
      99Ap     2.690093   100Ap     2.711940   101Ap     2.732038
      54App    2.888652   102Ap     2.901456   103Ap     3.993029
     104Ap     4.966385   105Ap     5.760428    55App    7.423179
     106Ap     7.426084   107Ap     7.442579    56App    7.442841
      57App    7.444772   108Ap     7.462812    58App    7.515573
     109Ap     7.533183   110Ap     7.598984   111Ap     7.609782

    Final Occupation by Irrep:
             Ap   App
    DOCC [    20,    5 ]
    SOCC [     0,    1 ]

  @UHF Final Energy: -1394.31342938486659

   => Energetics <=

    Nuclear Repulsion Energy =            162.0162418772321757
    One-Electron Energy =               -2249.2490930762551216
    Two-Electron Energy =                 692.9194218141562942
    Total Energy =                      -1394.3134293848668221

  UHF NO Occupations:
  HONO-2 :   20 Ap 1.9974861
  HONO-1 :    5App 1.9869027
  HONO-0 :    6App 1.0000000
  LUNO+0 :    7App 0.0130973
  LUNO+1 :   21 Ap 0.0025139
  LUNO+2 :   22 Ap 0.0022668
  LUNO+3 :   23 Ap 0.0003117

Computation Completed

Properties will be evaluated at   0.000000,   0.000000,   0.000000 [a0]

Properties computed using the SCF density matrix

  Nuclear Dipole Moment: [e a0]
     X:    -1.8496      Y:     0.0000      Z:     0.0000

  Electronic Dipole Moment: [e a0]
     X:     6.6359      Y:    -0.0002      Z:     0.0000

  Dipole Moment: [e a0]
     X:     4.7863      Y:    -0.0002      Z:     0.0000     Total:     4.7863

  Dipole Moment: [D]
     X:    12.1656      Y:    -0.0004      Z:     0.0000     Total:    12.1656

*** tstop() called on c5-8.compute.lan at Fri Mar  5 17:16:00 2021
Module time:
	user time   =     227.99 seconds =       3.80 minutes
	system time =       1.90 seconds =       0.03 minutes
	total time  =         60 seconds =       1.00 minutes
Total time:
	user time   =     227.99 seconds =       3.80 minutes
	system time =       1.90 seconds =       0.03 minutes
	total time  =         60 seconds =       1.00 minutes
 MINTS: Wrapper to libmints.
   by Justin Turney

   Calculation information:
      Number of threads:                12
      Number of atoms:                   3
      Number of AO shells:              53
      Number of SO shells:              53
      Number of primitives:            287
      Number of atomic orbitals:       199
      Number of basis functions:       169

      Number of irreps:                  2
      Integral cutoff                 0.00e+00
      Number of functions per irrep: [ 111   58 ]

 OEINTS: Overlap, kinetic, potential, dipole, and quadrupole integrals
         stored in file 35.

      Computing two-electron integrals...done
      Computed 51025924 non-zero two-electron integrals.
        Stored in file 33.

*** tstart() called on c5-8.compute.lan
*** at Fri Mar  5 17:17:43 2021

	Wfn Parameters:
	--------------------
	Wavefunction         = CCSD_T
	Number of irreps     = 2
	Number of MOs        = 169
	Number of active MOs = 150
	AO-Basis             = NONE
	Semicanonical        = false
	Reference            = UHF
	Print Level          = 1

	IRREP	# MOs	# FZDC	# DOCC	# SOCC	# VIRT	# FZVR
	-----	-----	------	------	------	------	------
	 Ap	   111	    15	    5	    0	    91	    0
	 App	   58	    4	    1	    1	    52	    0
	Transforming integrals...
	IWL integrals will be deleted.
	(OO|OO)...
	Presorting SO-basis two-electron integrals.
	Sorting File: SO Ints (nn|nn) nbuckets = 1
	Transforming the one-electron integrals and constructing Fock matrices
	Starting AA/AB first half-transformation.
	Sorting AA/AB half-transformed integrals.
	Starting BB first half-transformation.
	Sorting BB half-transformed integrals.
	First half integral transformation complete.
	Starting AA second half-transformation.
	Starting AB second half-transformation.
	Starting BB second half-transformation.
	Two-electron integral transformation complete.
	(OO|OV)...
	Starting AA second half-transformation.
	Starting AB second half-transformation.
	Starting BB second half-transformation.
	Two-electron integral transformation complete.
	(OO|VV)...
	Starting AA second half-transformation.
	Starting AB second half-transformation.
	Starting BB second half-transformation.
	Two-electron integral transformation complete.
	(OV|OO)...
	Starting AA/AB first half-transformation.
	Sorting AA/AB half-transformed integrals.
	Starting BB first half-transformation.
	Sorting BB half-transformed integrals.
	First half integral transformation complete.
	Starting AA second half-transformation.
	Starting AB second half-transformation.
	Starting BB second half-transformation.
	Two-electron integral transformation complete.
	(OV|OV)...
	Starting AA second half-transformation.
	Starting AB second half-transformation.
	Starting BB second half-transformation.
	Two-electron integral transformation complete.
	(OV|VV)...
	Starting AA second half-transformation.
	Starting AB second half-transformation.
	Starting BB second half-transformation.
	Two-electron integral transformation complete.
	(VV|OO)...
	Starting AA/AB first half-transformation.
	Sorting AA/AB half-transformed integrals.
	Starting BB first half-transformation.
	Sorting BB half-transformed integrals.
	First half integral transformation complete.
	Starting AA second half-transformation.
	Starting AB second half-transformation.
	Starting BB second half-transformation.
	Two-electron integral transformation complete.
	(VV|OV)...
	Starting AA second half-transformation.
	Starting AB second half-transformation.
	Starting BB second half-transformation.
	Two-electron integral transformation complete.
	(VV|VV)...
	Starting AA second half-transformation.
	Starting AB second half-transformation.
	Starting BB second half-transformation.
	Two-electron integral transformation complete.
	Frozen core energy     =  -1525.21402727482700

	Size of irrep 0 of <AB|CD> integrals:     29.387 (MW) /    235.098 (MB)
	Size of irrep 1 of <AB|CD> integrals:     22.392 (MW) /    179.135 (MB)
	Total:                                    51.779 (MW) /    414.233 (MB)

	Size of irrep 0 of <ab|cd> integrals:     29.954 (MW) /    239.630 (MB)
	Size of irrep 1 of <ab|cd> integrals:     23.261 (MW) /    186.091 (MB)
	Total:                                    53.215 (MW) /    425.720 (MB)

	Size of irrep 0 of <Ab|Cd> integrals:    121.815 (MW) /    974.523 (MB)
	Size of irrep 1 of <Ab|Cd> integrals:     91.298 (MW) /    730.384 (MB)
	Total:                                   213.113 (MW) /   1704.907 (MB)

	Size of irrep 0 of <IA|BC> integrals:      6.141 (MW) /     49.125 (MB)
	Size of irrep 1 of <IA|BC> integrals:      4.183 (MW) /     33.465 (MB)
	Total:                                    10.324 (MW) /     82.590 (MB)

	Size of irrep 0 of <ia|bc> integrals:      5.634 (MW) /     45.070 (MB)
	Size of irrep 1 of <ia|bc> integrals:      3.434 (MW) /     27.472 (MB)
	Total:                                     9.068 (MW) /     72.542 (MB)

	Size of irrep 0 of <Ia|Bc> integrals:      6.192 (MW) /     49.534 (MB)
	Size of irrep 1 of <Ia|Bc> integrals:      4.271 (MW) /     34.169 (MB)
	Total:                                    10.463 (MW) /     83.703 (MB)

	Size of irrep 0 of <iA|bC> integrals:      5.596 (MW) /     44.766 (MB)
	Size of irrep 1 of <iA|bC> integrals:      3.354 (MW) /     26.830 (MB)
	Total:                                     8.950 (MW) /     71.597 (MB)

	Size of irrep 0 of tIjAb amplitudes:       0.298 (MW) /      2.384 (MB)
	Size of irrep 1 of tIjAb amplitudes:       0.143 (MW) /      1.147 (MB)
	Total:                                     0.441 (MW) /      3.531 (MB)

	Nuclear Rep. energy          =    162.01624187723218
	SCF energy                   =  -1394.31342938486659
	One-electron energy          =    -55.87499478610914
	Two-electron (AA) energy     =      6.08224479765329
	Two-electron (BB) energy     =      4.34716119090132
	Two-electron (AB) energy     =     14.32994481026327
	Two-electron energy          =     24.75935079881787
	Reference energy             =  -1394.31342938488615

*** tstop() called on c5-8.compute.lan at Fri Mar  5 17:19:32 2021
Module time:
	user time   =     197.58 seconds =       3.29 minutes
	system time =      31.41 seconds =       0.52 minutes
	total time  =        109 seconds =       1.82 minutes
Total time:
	user time   =     531.54 seconds =       8.86 minutes
	system time =      34.84 seconds =       0.58 minutes
	total time  =        272 seconds =       4.53 minutes
            **************************
            *                        *
            *        CCENERGY        *
            *                        *
            **************************

    Nuclear Rep. energy (wfn)     =  162.016241877232176
    SCF energy          (wfn)     = -1394.313429384866595
    Reference energy    (file100) = -1394.313429384886149

    Input parameters:
    -----------------
    Wave function   =     CCSD_T
    Reference wfn   =     UHF
    Brueckner       =     No
    Memory (Mbytes) =     46000.0
    Maxiter         =     50
    R_Convergence   =     1.0e-10
    E_Convergence   =     1.0e-10
    Restart         =     Yes
    DIIS            =     Yes
    AO Basis        =     NONE
    ABCD            =     NEW
    Cache Level     =     2
    Cache Type      =     LRU
    Print Level     =     1
    Num. of threads =     12
    # Amps to Print =     10
    Print MP2 Amps? =     No
    Analyze T2 Amps =     No
    Print Pair Ener =     No
    Local CC        =     No
    SCS-MP2         =     False
    SCSN-MP2        =     False
    SCS-CCSD        =     False

MP2 correlation energy -0.3450754100125043
                Solving CC Amplitude Equations
                ------------------------------
  Iter             Energy              RMS        T1Diag      D1Diag    New D1Diag    D2Diag
  ----     ---------------------    ---------   ----------  ----------  ----------   --------
     0        -0.345075410012504    0.000e+00    0.000000    0.000000    0.000000    0.000000
     1        -0.358643634203603    8.246e-02    0.015920    0.000000    0.000000    0.000000
     2        -0.369306089928100    2.599e-02    0.018544    0.000000    0.000000    0.000000
     3        -0.371493841705237    1.235e-02    0.022082    0.000000    0.000000    0.000000
     4        -0.371378378557135    3.434e-03    0.023160    0.000000    0.000000    0.000000
     5        -0.371343494732470    1.414e-03    0.023442    0.000000    0.000000    0.000000
     6        -0.371337113148551    6.115e-04    0.023529    0.000000    0.000000    0.000000
     7        -0.371333852312183    3.088e-04    0.023556    0.000000    0.000000    0.000000
     8        -0.371334985694435    1.660e-04    0.023561    0.000000    0.000000    0.000000
     9        -0.371338639611067    9.469e-05    0.023562    0.000000    0.000000    0.000000
    10        -0.371337217136720    5.125e-05    0.023564    0.000000    0.000000    0.000000
    11        -0.371337041302637    2.255e-05    0.023563    0.000000    0.000000    0.000000
    12        -0.371336666806607    1.096e-05    0.023564    0.000000    0.000000    0.000000
    13        -0.371336485506443    5.458e-06    0.023564    0.000000    0.000000    0.000000
    14        -0.371336480872477    2.988e-06    0.023564    0.000000    0.000000    0.000000
    15        -0.371336485139228    1.870e-06    0.023564    0.000000    0.000000    0.000000
    16        -0.371336485125998    1.050e-06    0.023564    0.000000    0.000000    0.000000

      * MP2 total energy                      = -1394.658504794898590
      * CCSD total energy                     = -1394.684765874714230
      * CCSD(T) total energy                     = -1394.706862759059732
*** Psi4 exiting successfully. Buy a developer a beer!
