                               Psi4 1.3.2 release

  ==> Input File <==

--------------------------------------------------------------------------
memory 46 GB

basis jerome {
assign pot
assign S aug-cc-pV(T+d)Z

[pot]
spherical
****
 K  0
 S 23 1.00
    2.709796E+07     4.136110E-07
    3.592856E+06     3.860330E-06
    7.222638E+05     2.394640E-05
    1.833976E+05     1.157540E-04
    5.464812E+04     4.697010E-04
    1.830913E+04     1.673720E-03
    6.712501E+03     5.370450E-03
    2.643719E+03     1.572510E-02
    1.103835E+03     4.193360E-02
    4.836777E+02     9.987620E-02
    2.206245E+02     2.019680E-01
    1.041117E+02     3.146270E-01
    5.052749E+01     3.107540E-01
    2.485247E+01     1.421920E-01
    1.128102E+01     1.658490E-02
    5.510166E+00    -2.759760E-04
    2.706914E+00     5.158310E-04
    1.122807E+00    -2.268950E-04
    5.236385E-01     6.652980E-05
    2.355180E-01    -3.685150E-05
    4.157977E-02     1.925250E-05
    2.555456E-02    -2.108420E-05
    1.471495E-02     7.044600E-06
 S 23 1.00
    2.709796E+07    -1.188290E-07
    3.592856E+06    -1.108550E-06
    7.222638E+05    -6.881230E-06
    1.833976E+05    -3.324150E-05
    5.464812E+04    -1.350850E-04
    1.830913E+04    -4.814570E-04
    6.712501E+03    -1.552620E-03
    2.643719E+03    -4.578330E-03
    1.103835E+03    -1.247930E-02
    4.836777E+02    -3.094650E-02
    2.206245E+02    -6.855530E-02
    1.041117E+02    -1.268300E-01
    5.052749E+01    -1.745020E-01
    2.485247E+01    -9.089560E-02
    1.128102E+01     2.506960E-01
    5.510166E+00     5.589630E-01
    2.706914E+00     3.284370E-01
    1.122807E+00     3.392170E-02
    5.236385E-01    -2.100280E-03
    2.355180E-01     1.383960E-03
    4.157977E-02    -5.315630E-04
    2.555456E-02     5.770310E-04
    1.471495E-02    -1.931440E-04
 S 23 1.00
    2.709796E+07     3.917470E-08
    3.592856E+06     3.650640E-07
    7.222638E+05     2.269460E-06
    1.833976E+05     1.094290E-05
    5.464812E+04     4.457360E-05
    1.830913E+04     1.584480E-04
    6.712501E+03     5.128440E-04
    2.643719E+03     1.507690E-03
    1.103835E+03     4.136940E-03
    4.836777E+02     1.024690E-02
    2.206245E+02     2.306520E-02
    1.041117E+02     4.308900E-02
    5.052749E+01     6.238120E-02
    2.485247E+01     3.270420E-02
    1.128102E+01    -1.021980E-01
    5.510166E+00    -3.317970E-01
    2.706914E+00    -3.030100E-01
    1.122807E+00     3.098410E-01
    5.236385E-01     6.732700E-01
    2.355180E-01     2.812200E-01
    4.157977E-02     9.376240E-03
    2.555456E-02    -6.955720E-03
    1.471495E-02     2.069460E-03
 S 23 1.00
    2.709796E+07    -7.564440E-09
    3.592856E+06    -7.055390E-08
    7.222638E+05    -4.380820E-07
    1.833976E+05    -2.115540E-06
    5.464812E+04    -8.601300E-06
    1.830913E+04    -3.064440E-05
    6.712501E+03    -9.892550E-05
    2.643719E+03    -2.917760E-04
    1.103835E+03    -7.977860E-04
    4.836777E+02    -1.985820E-03
    2.206245E+02    -4.449740E-03
    1.041117E+02    -8.390260E-03
    5.052749E+01    -1.206000E-02
    2.485247E+01    -6.568410E-03
    1.128102E+01     2.061430E-02
    5.510166E+00     6.770060E-02
    2.706914E+00     6.639570E-02
    1.122807E+00    -8.237770E-02
    5.236385E-01    -1.727150E-01
    2.355180E-01    -2.310290E-01
    4.157977E-02     5.090040E-01
    2.555456E-02     3.472180E-01
    1.471495E-02     2.809620E-01
 S 1 1.00
    2.555456E-02     1.000000E+00
 S 1 1.00
    1.471495E-02     1.000000E+00
 S 1 1.00
    8.470000E-03     1.000000E+00
 P 16 1.00
    9.533309E+03     4.212010E-05
    1.852081E+03     5.068300E-04
    5.464251E+02     3.311700E-03
    1.966947E+02     1.536840E-02
    7.964112E+01     5.457060E-02
    3.488324E+01     1.473880E-01
    1.604479E+01     2.879240E-01
    7.575632E+00     3.750810E-01
    3.672548E+00     2.545160E-01
    1.771130E+00     6.059280E-02
    8.515199E-01     2.508370E-03
    4.016017E-01     6.688870E-04
    1.851933E-01    -1.486150E-04
    5.523390E-02     4.936010E-05
    2.431085E-02    -3.513850E-05
    1.080339E-02     1.171450E-05
 P 16 1.00
    9.533309E+03    -1.280760E-05
    1.852081E+03    -1.547870E-04
    5.464251E+02    -1.010940E-03
    1.966947E+02    -4.738330E-03
    7.964112E+01    -1.703260E-02
    3.488324E+01    -4.754130E-02
    1.604479E+01    -9.560810E-02
    7.575632E+00    -1.337000E-01
    3.672548E+00    -7.425060E-02
    1.771130E+00     1.646810E-01
    8.515199E-01     4.057630E-01
    4.016017E-01     4.113600E-01
    1.851933E-01     1.734240E-01
    5.523390E-02     1.253640E-02
    2.431085E-02    -3.267140E-03
    1.080339E-02     1.039680E-03
 P 16 1.00
    9.533309E+03     1.764010E-06
    1.852081E+03     2.124880E-05
    5.464251E+02     1.392500E-04
    1.966947E+02     6.509140E-04
    7.964112E+01     2.349940E-03
    3.488324E+01     6.547470E-03
    1.604479E+01     1.326270E-02
    7.575632E+00     1.848520E-02
    3.672548E+00     1.025530E-02
    1.771130E+00    -2.652150E-02
    8.515199E-01    -6.086460E-02
    4.016017E-01    -7.474220E-02
    1.851933E-01    -4.870880E-02
    5.523390E-02     2.245720E-01
    2.431085E-02     5.839280E-01
    1.080339E-02     2.980960E-01
 P 1 1.00
    5.523390E-02     1.000000E+00
 P 1 1.00
    1.080339E-02     1.000000E+00
 P 1 1.00
    4.800000E-03     1.000000E+00
 D 6 1.00
    5.670903E+00     8.285900E-03
    1.459042E+00     2.332530E-02
    5.431827E-01     4.878080E-02
    1.346875E-01     7.349020E-02
    5.516013E-02     2.387630E-01
    1.501876E-02     8.253200E-01
 D 1 1.00
    5.516013E-02     1.000000E+00
 D 1 1.00
    1.501876E-02     1.000000E+00
 D 1 1.00
    6.010000E-03     1.000000E+00
 F 1 1.00
    8.493750E-02     1.000000E+00
 F 1 1.00
    3.398000E-02     1.000000E+00
 ****
}

molecule  {
0 2
S    0.000000000000    0.000000000000    0.417177627891
S    0.000000000000    0.000000000000    2.393612887032
K    0.000000000000    0.000000000000   -2.306423143568
}
set {
basis jerome
reference uhf
g_convergence gau_verytight
e_convergence 10
scf_type pk
freeze_core true
geom_maxiter 100
}

set ccenergy {
e_convergence 10
r_convergence 10
}

e = energy('ccsd(t)')

print_out('Stephenergy {}'.format(e))

--------------------------------------------------------------------------

    Molecular point group: c2v

    Geometry (in Angstrom), charge = 0, multiplicity = 2:

       Center              X                  Y                   Z               Mass
    ------------   -----------------  -----------------  -----------------  -----------------
         S            0.000000000000     0.000000000000     0.417177627891    31.972071174400
         S            0.000000000000     0.000000000000     2.393612887032    31.972071174400
         K            0.000000000000     0.000000000000    -2.306423143568    38.963706486400

  Charge       = 0
  Multiplicity = 2
  Basis Set: JEROME
    Blend: AUG-CC-PV(T+D)Z + POT

    Orbital Energies [Eh]
    ---------------------

    Alpha Occupied:

       1A1  -133.556710     2A1   -91.908953     3A1   -91.880790
       4A1   -14.513881     1B1   -11.543815     1B2   -11.543717
       5A1   -11.543690     6A1    -8.907807     7A1    -8.882081
       2B1    -6.600119     8A1    -6.586061     2B2    -6.584023
       3B1    -6.566898     9A1    -6.562568     3B2    -6.561065
      10A1    -1.774885    11A1    -0.991839     4B1    -0.983566
       4B2    -0.982820    12A1    -0.962004    13A1    -0.742486
       5B1    -0.422707    14A1    -0.421728     5B2    -0.385433
       6B1    -0.281208     6B2    -0.242789

    Alpha Virtual:

      15A1    -0.021193     7B1     0.001624     7B2     0.001878
      16A1     0.005066    17A1     0.015213     1A2     0.016745
      18A1     0.016764     8B1     0.019475     8B2     0.019842
       9B1     0.022065     9B2     0.022540    19A1     0.027058
      20A1     0.031485     2A2     0.050165    21A1     0.050172
      10B1     0.058818    10B2     0.059885    22A1     0.062194
      11B1     0.071919    11B2     0.072743    23A1     0.076440
      24A1     0.094596    25A1     0.107145    12B1     0.118962
      12B2     0.120561    13B1     0.125414    13B2     0.125415
      26A1     0.130034     3A2     0.130093    27A1     0.134051
       4A2     0.151721    28A1     0.151745    14B1     0.157160
      14B2     0.161921    29A1     0.168003    15B1     0.188467
      15B2     0.192484    30A1     0.203666    31A1     0.221052
      16B1     0.223075    16B2     0.225218    17B1     0.236613
      17B2     0.240738    32A1     0.272852    33A1     0.300499
       5A2     0.316180    34A1     0.317416    35A1     0.323111
      18B1     0.363155    18B2     0.368517     6A2     0.368968
      36A1     0.369153    19B1     0.382142    19B2     0.382143
      37A1     0.389594     7A2     0.389604    20B1     0.393886
      20B2     0.399952    38A1     0.409669    39A1     0.440117
      40A1     0.444785    21B1     0.457710     8A2     0.460660
      41A1     0.461174    21B2     0.467139    22B1     0.553198
      42A1     0.561188    22B2     0.565966    23B1     0.647093
      23B2     0.662865    43A1     0.711413    24B1     0.740139
      44A1     0.752778    24B2     0.754091     9A2     0.754392
      45A1     0.782372    25B1     0.846951    10A2     0.852535
      46A1     0.852602    25B2     0.866764    26B1     0.868602
      26B2     0.868635    47A1     0.879109    27B1     0.934065
      27B2     0.949020    48A1     0.968959    11A2     0.976708
      49A1     0.977594    28B1     1.016250    28B2     1.016262
      50A1     1.094889    51A1     1.196273    29B1     1.201843
      29B2     1.217510    52A1     1.221619    12A2     1.222213
      53A1     1.303063    30B1     1.391921    30B2     1.408808
      54A1     1.545489    55A1     1.730207    13A2     1.999915
      56A1     2.000594    57A1     2.088549    14A2     2.088996
      58A1     2.120245    31B1     2.133149    31B2     2.152429
      32B1     2.224956    32B2     2.246643    33B1     2.306550
      59A1     2.316172    33B2     2.326923    15A2     2.377485
      60A1     2.378370    34B1     2.404164    34B2     2.404311
      35B1     2.474413    35B2     2.474433    36B1     2.481072
      61A1     2.493813    36B2     2.504724    62A1     2.621321
      16A2     2.621918    37B1     2.626585    37B2     2.646304
      63A1     2.785686    64A1     2.931089    38B1     2.951089
      38B2     2.972851    65A1     4.079130    66A1     5.073557
      67A1     5.807504    68A1     7.394983    17A2     7.395134
      69A1     7.447703    18A2     7.447708    39B1     7.477247
      39B2     7.492575    40B1     7.556865    40B2     7.565541
      70A1     7.602780    71A1     7.703611

    Beta Occupied:

       1A1  -133.556723     2A1   -91.901426     3A1   -91.878255
       4A1   -14.513902     5A1   -11.543757     1B1   -11.543737
       1B2   -11.543735     6A1    -8.899591     7A1    -8.879328
       8A1    -6.581984     2B2    -6.579501     2B1    -6.566960
       9A1    -6.561914     3B2    -6.559494     3B1    -6.555170
      10A1    -1.774875    11A1    -0.988249     4B1    -0.983042
       4B2    -0.982896    12A1    -0.928563    13A1    -0.677996
      14A1    -0.404684     5B2    -0.377125     5B1    -0.311501
       6B2    -0.230804

    Beta Virtual:

      15A1    -0.021080     6B1     0.001583     7B2     0.001880
      16A1     0.005119    17A1     0.015218     1A2     0.016746
      18A1     0.016765     7B1     0.019281     8B2     0.019846
       8B1     0.022108     9B2     0.022539    19A1     0.027149
      20A1     0.031578     2A2     0.050204    21A1     0.050207
       9B1     0.058160    10B2     0.059896    22A1     0.062215
      10B1     0.065972    11B2     0.072756    23A1     0.076399
      11B1     0.078817    24A1     0.095498    25A1     0.108211
      12B2     0.120708    12B1     0.125249    13B2     0.125438
      13B1     0.125531    26A1     0.130115     3A2     0.130187
      27A1     0.134177     4A2     0.152292    28A1     0.152302
      14B2     0.162156    14B1     0.163615    29A1     0.167847
      15B2     0.192894    15B1     0.198807    30A1     0.208489
      16B1     0.224893    16B2     0.225188    31A1     0.227056
      17B2     0.240522    17B1     0.246854    32A1     0.272599
      33A1     0.305090    34A1     0.324205     5A2     0.325977
      35A1     0.328055    18B2     0.368322    18B1     0.368995
       6A2     0.374916    36A1     0.374992    19B2     0.382356
      19B1     0.382358    37A1     0.389860     7A2     0.389867
      20B2     0.399658    20B1     0.404152    38A1     0.410363
      39A1     0.441896    40A1     0.449791    21B2     0.468047
       8A2     0.468066    41A1     0.468288    21B1     0.475825
      22B2     0.567135    42A1     0.568636    22B1     0.579922
      23B2     0.664866    23B1     0.666786    43A1     0.716028
      24B2     0.756184    24B1     0.762457    44A1     0.783563
       9A2     0.785234    45A1     0.785254    25B2     0.868106
      25B1     0.873938    26B2     0.874579    10A2     0.877707
      46A1     0.877829    26B1     0.878462    47A1     0.887171
      27B2     0.949547    27B1     0.956554    48A1     0.975583
      11A2     0.987510    49A1     0.987725    28B2     1.026019
      28B1     1.026025    50A1     1.101305    51A1     1.201137
      29B1     1.214894    29B2     1.217981    52A1     1.229541
      12A2     1.229756    53A1     1.307154    30B1     1.408632
      30B2     1.410869    54A1     1.559928    55A1     1.740389
      56A1     2.018827    13A2     2.018864    57A1     2.100815
      14A2     2.101005    58A1     2.122028    31B1     2.145900
      31B2     2.153644    32B1     2.247899    32B2     2.248887
      59A1     2.321269    33B1     2.324460    33B2     2.328966
      15A2     2.389469    60A1     2.389564    34B2     2.426967
      34B1     2.426970    35B2     2.493049    35B1     2.493050
      61A1     2.497639    36B2     2.509046    36B1     2.515121
      62A1     2.634846    16A2     2.634958    37B1     2.648165
      37B2     2.649310    63A1     2.791742    64A1     2.935719
      38B1     2.970711    38B2     2.974789    65A1     4.082043
      66A1     5.083781    67A1     5.816499    68A1     7.402990
      17A2     7.403063    69A1     7.451662    18A2     7.451670
      39B1     7.484416    39B2     7.493552    40B1     7.560646
      40B2     7.565972    70A1     7.604751    71A1     7.705555

    Final Occupation by Irrep:
             A1    A2    B1    B2
    DOCC [    14,    0,    5,    6 ]
    SOCC [     0,    0,    1,    0 ]

  @UHF Final Energy: -1394.29735242929746

   => Energetics <=

    Nuclear Repulsion Energy =            161.8347874834948072
    One-Electron Energy =               -2249.0054244484645096
    Two-Electron Energy =                 692.8732845356721555
    Total Energy =                      -1394.2973524292974616

  UHF NO Occupations:
  HONO-2 :   14 A1 1.9957485
  HONO-1 :    5 B1 1.9920704
  HONO-0 :    6 B1 1.0000000
  LUNO+0 :    7 B1 0.0079296
  LUNO+1 :   15 A1 0.0042515
  LUNO+2 :   16 A1 0.0008946
  LUNO+3 :    7 B2 0.0003678

Computation Completed

Properties will be evaluated at   0.000000,   0.000000,   0.000000 [a0]

Properties computed using the SCF density matrix

  Nuclear Dipole Moment: [e a0]
     X:     0.0000      Y:     0.0000      Z:     2.1743

  Electronic Dipole Moment: [e a0]
     X:     0.0000      Y:     0.0000      Z:    -7.2445

  Dipole Moment: [e a0]
     X:     0.0000      Y:     0.0000      Z:    -5.0702     Total:     5.0702

  Dipole Moment: [D]
     X:     0.0000      Y:     0.0000      Z:   -12.8872     Total:    12.8872

*** tstop() called on d3-6.compute.lan at Fri Mar  5 14:33:32 2021
Module time:
	user time   =     261.39 seconds =       4.36 minutes
	system time =       3.14 seconds =       0.05 minutes
	total time  =         67 seconds =       1.12 minutes
Total time:
	user time   =     261.39 seconds =       4.36 minutes
	system time =       3.14 seconds =       0.05 minutes
	total time  =         67 seconds =       1.12 minutes
 MINTS: Wrapper to libmints.
   by Justin Turney

   Calculation information:
      Number of threads:                12
      Number of atoms:                   3
      Number of AO shells:              53
      Number of SO shells:              53
      Number of primitives:            287
      Number of atomic orbitals:       199
      Number of basis functions:       169

      Number of irreps:                  4
      Integral cutoff                 0.00e+00
      Number of functions per irrep: [  71   18   40   40 ]

 OEINTS: Overlap, kinetic, potential, dipole, and quadrupole integrals
         stored in file 35.

      Computing two-electron integrals...done
      Computed 23779563 non-zero two-electron integrals.
        Stored in file 33.

*** tstart() called on d3-6.compute.lan
*** at Fri Mar  5 14:35:38 2021

	Wfn Parameters:
	--------------------
	Wavefunction         = CCSD_T
	Number of irreps     = 4
	Number of MOs        = 169
	Number of active MOs = 150
	AO-Basis             = NONE
	Semicanonical        = false
	Reference            = UHF
	Print Level          = 1

	IRREP	# MOs	# FZDC	# DOCC	# SOCC	# VIRT	# FZVR
	-----	-----	------	------	------	------	------
	 A1	   71	    11	    3	    0	    57	    0
	 A2	   18	    0	    0	    0	    18	    0
	 B1	   40	    4	    1	    1	    34	    0
	 B2	   40	    4	    2	    0	    34	    0
	Transforming integrals...
	IWL integrals will be deleted.
	(OO|OO)...
	Presorting SO-basis two-electron integrals.
	Sorting File: SO Ints (nn|nn) nbuckets = 1
	Transforming the one-electron integrals and constructing Fock matrices
	Starting AA/AB first half-transformation.
	Sorting AA/AB half-transformed integrals.
	Starting BB first half-transformation.
	Sorting BB half-transformed integrals.
	First half integral transformation complete.
	Starting AA second half-transformation.
	Starting AB second half-transformation.
	Starting BB second half-transformation.
	Two-electron integral transformation complete.
	(OO|OV)...
	Starting AA second half-transformation.
	Starting AB second half-transformation.
	Starting BB second half-transformation.
	Two-electron integral transformation complete.
	(OO|VV)...
	Starting AA second half-transformation.
	Starting AB second half-transformation.
	Starting BB second half-transformation.
	Two-electron integral transformation complete.
	(OV|OO)...
	Starting AA/AB first half-transformation.
	Sorting AA/AB half-transformed integrals.
	Starting BB first half-transformation.
	Sorting BB half-transformed integrals.
	First half integral transformation complete.
	Starting AA second half-transformation.
	Starting AB second half-transformation.
	Starting BB second half-transformation.
	Two-electron integral transformation complete.
	(OV|OV)...
	Starting AA second half-transformation.
	Starting AB second half-transformation.
	Starting BB second half-transformation.
	Two-electron integral transformation complete.
	(OV|VV)...
	Starting AA second half-transformation.
	Starting AB second half-transformation.
	Starting BB second half-transformation.
	Two-electron integral transformation complete.
	(VV|OO)...
	Starting AA/AB first half-transformation.
	Sorting AA/AB half-transformed integrals.
	Starting BB first half-transformation.
	Sorting BB half-transformed integrals.
	First half integral transformation complete.
	Starting AA second half-transformation.
	Starting AB second half-transformation.
	Starting BB second half-transformation.
	Two-electron integral transformation complete.
	(VV|OV)...
	Starting AA second half-transformation.
	Starting AB second half-transformation.
	Starting BB second half-transformation.
	Two-electron integral transformation complete.
	(VV|VV)...
	Starting AA second half-transformation.
	Starting AB second half-transformation.
	Starting BB second half-transformation.
	Two-electron integral transformation complete.
	Frozen core energy     =  -1525.07425859796604

	Size of irrep 0 of <AB|CD> integrals:      8.243 (MW) /     65.941 (MB)
	Size of irrep 1 of <AB|CD> integrals:      4.761 (MW) /     38.089 (MB)
	Size of irrep 2 of <AB|CD> integrals:      6.503 (MW) /     52.020 (MB)
	Size of irrep 3 of <AB|CD> integrals:      6.503 (MW) /     52.020 (MB)
	Total:                                    26.009 (MW) /    208.070 (MB)

	Size of irrep 0 of <ab|cd> integrals:      8.439 (MW) /     67.512 (MB)
	Size of irrep 1 of <ab|cd> integrals:      4.911 (MW) /     39.285 (MB)
	Size of irrep 2 of <ab|cd> integrals:      6.796 (MW) /     54.372 (MB)
	Size of irrep 3 of <ab|cd> integrals:      6.595 (MW) /     52.757 (MB)
	Total:                                    26.741 (MW) /    213.926 (MB)

	Size of irrep 0 of <Ab|Cd> integrals:     35.035 (MW) /    280.276 (MB)
	Size of irrep 1 of <Ab|Cd> integrals:     19.342 (MW) /    154.739 (MB)
	Size of irrep 2 of <Ab|Cd> integrals:     26.595 (MW) /    212.757 (MB)
	Size of irrep 3 of <Ab|Cd> integrals:     26.194 (MW) /    209.551 (MB)
	Total:                                   107.166 (MW) /    857.324 (MB)

	Size of irrep 0 of <IA|BC> integrals:      1.807 (MW) /     14.454 (MB)
	Size of irrep 1 of <IA|BC> integrals:      0.829 (MW) /      6.633 (MB)
	Size of irrep 2 of <IA|BC> integrals:      1.285 (MW) /     10.282 (MB)
	Size of irrep 3 of <IA|BC> integrals:      1.285 (MW) /     10.282 (MB)
	Total:                                     5.206 (MW) /     41.650 (MB)

	Size of irrep 0 of <ia|bc> integrals:      1.631 (MW) /     13.051 (MB)
	Size of irrep 1 of <ia|bc> integrals:      0.700 (MW) /      5.602 (MB)
	Size of irrep 2 of <ia|bc> integrals:      1.032 (MW) /      8.259 (MB)
	Size of irrep 3 of <ia|bc> integrals:      1.202 (MW) /      9.615 (MB)
	Total:                                     4.566 (MW) /     36.527 (MB)

	Size of irrep 0 of <Ia|Bc> integrals:      1.829 (MW) /     14.632 (MB)
	Size of irrep 1 of <Ia|Bc> integrals:      0.844 (MW) /      6.755 (MB)
	Size of irrep 2 of <Ia|Bc> integrals:      1.315 (MW) /     10.520 (MB)
	Size of irrep 3 of <Ia|Bc> integrals:      1.290 (MW) /     10.318 (MB)
	Total:                                     5.278 (MW) /     42.225 (MB)

	Size of irrep 0 of <iA|bC> integrals:      1.616 (MW) /     12.927 (MB)
	Size of irrep 1 of <iA|bC> integrals:      0.686 (MW) /      5.489 (MB)
	Size of irrep 2 of <iA|bC> integrals:      1.006 (MW) /      8.045 (MB)
	Size of irrep 3 of <iA|bC> integrals:      1.198 (MW) /      9.581 (MB)
	Total:                                     4.505 (MW) /     36.042 (MB)

	Size of irrep 0 of tIjAb amplitudes:       0.089 (MW) /      0.710 (MB)
	Size of irrep 1 of tIjAb amplitudes:       0.026 (MW) /      0.211 (MB)
	Size of irrep 2 of tIjAb amplitudes:       0.046 (MW) /      0.371 (MB)
	Size of irrep 3 of tIjAb amplitudes:       0.061 (MW) /      0.491 (MB)
	Total:                                     0.223 (MW) /      1.784 (MB)

	Nuclear Rep. energy          =    161.83478748349481
	SCF energy                   =  -1394.29735242929746
	One-electron energy          =    -55.72673311333014
	Two-electron (AA) energy     =      6.01746915056284
	Two-electron (BB) energy     =      4.39306761001087
	Two-electron (AB) energy     =     14.25831503789392
	Two-electron energy          =     24.66885179846764
	Reference energy             =  -1394.29735242933361

*** tstop() called on d3-6.compute.lan at Fri Mar  5 14:36:23 2021
Module time:
	user time   =     337.72 seconds =       5.63 minutes
	system time =      18.54 seconds =       0.31 minutes
	total time  =         45 seconds =       0.75 minutes
Total time:
	user time   =     727.65 seconds =      12.13 minutes
	system time =      22.68 seconds =       0.38 minutes
	total time  =        238 seconds =       3.97 minutes
            **************************
            *                        *
            *        CCENERGY        *
            *                        *
            **************************

    Nuclear Rep. energy (wfn)     =  161.834787483494807
    SCF energy          (wfn)     = -1394.297352429297462
    Reference energy    (file100) = -1394.297352429333614

    Input parameters:
    -----------------
    Wave function   =     CCSD_T
    Reference wfn   =     UHF
    Brueckner       =     No
    Memory (Mbytes) =     46000.0
    Maxiter         =     50
    R_Convergence   =     1.0e-10
    E_Convergence   =     1.0e-10
    Restart         =     Yes
    DIIS            =     Yes
    AO Basis        =     NONE
    ABCD            =     NEW
    Cache Level     =     2
    Cache Type      =     LRU
    Print Level     =     1
    Num. of threads =     12
    # Amps to Print =     10
    Print MP2 Amps? =     No
    Analyze T2 Amps =     No
    Print Pair Ener =     No
    Local CC        =     No
    SCS-MP2         =     False
    SCSN-MP2        =     False
    SCS-CCSD        =     False

MP2 correlation energy -0.3331566327921443
                Solving CC Amplitude Equations
                ------------------------------
  Iter             Energy              RMS        T1Diag      D1Diag    New D1Diag    D2Diag

      * MP2 total energy                      = -1394.630509062125839
      * CCSD total energy                     = -1394.657483453258692
      * CCSD(T) total energy                     = -1394.678032541056155
*** Psi4 exiting successfully. Buy a developer a beer!
