                               Psi4 1.4a2.dev191

  ==> Input File <==

--------------------------------------------------------------------------
memory 10 GB

molecule  {
-2 1
S
S 1 r1
S 1 r2 2 a1
r1 = 2.0
r2 = 2.1
a1 = 120.0
}

set {
reference uks
basis aug-cc-pvtz
g_convergence gau_verytight
dft_spherical_points 590
dft_radial_points 99
}

optimize('wb97m-v')
frequencies('wb97m-v')

--------------------------------------------------------------------------

    Molecular point group: cs
  Charge       = -2
  Multiplicity = 1
  Basis Set: AUG-CC-PVTZ
    Blend: AUG-CC-PVTZ
  Basis Set: (AUG-CC-PVTZ AUX)
    Blend: AUG-CC-PVTZ-JKFIT
  @DF-UKS Final Energy: -1194.53080271359977
    Total Energy =                      -1194.5308027135999964
    Molecular point group: cs
  Basis Set: AUG-CC-PVTZ
    Blend: AUG-CC-PVTZ
  Basis Set: (AUG-CC-PVTZ AUX)
    Blend: AUG-CC-PVTZ-JKFIT
  @DF-UKS Final Energy: -1194.53078494892316
    Total Energy =                      -1194.5307849489231558
  Basis Set: AUG-CC-PVTZ
    Blend: AUG-CC-PVTZ
  Basis Set: (AUG-CC-PVTZ AUX)
    Blend: AUG-CC-PVTZ-JKFIT
  @DF-UKS Final Energy: -1194.53082032005182
    Total Energy =                      -1194.5308203200518165
  Basis Set: AUG-CC-PVTZ
    Blend: AUG-CC-PVTZ
  Basis Set: (AUG-CC-PVTZ AUX)
    Blend: AUG-CC-PVTZ-JKFIT
  @DF-UKS Final Energy: -1194.53075954985115
    Total Energy =                      -1194.5307595498511546
  @DF-UKS Final Energy: -1194.53084556629256
    Total Energy =                      -1194.5308455662925553
  @DF-UKS Final Energy: -1194.53078458460277
    Total Energy =                      -1194.5307845846027703
  @DF-UKS Final Energy: -1194.53082072832558
    Total Energy =                      -1194.5308207283255797
  @DF-UKS Final Energy: -1194.53526997321751
    Total Energy =                      -1194.5352699732175097
  @DF-UKS Final Energy: -1194.53526677765012
    Total Energy =                      -1194.5352667776498947
  @DF-UKS Final Energy: -1194.53527300726319
    Total Energy =                      -1194.5352730072631857
  @DF-UKS Final Energy: -1194.53525104210098
    Total Energy =                      -1194.5352510421009811
  @DF-UKS Final Energy: -1194.53528865602038
    Total Energy =                      -1194.5352886560203842
  @DF-UKS Final Energy: -1194.53526241641794
    Total Energy =                      -1194.5352624164179360
  @DF-UKS Final Energy: -1194.53527743260474
    Total Energy =                      -1194.5352774326047438
  @DF-UKS Final Energy: -1194.53604673503241
    Total Energy =                      -1194.5360467350324143
  @DF-UKS Final Energy: -1194.53604821834688
    Total Energy =                      -1194.5360482183468775
  @DF-UKS Final Energy: -1194.53604509241222
    Total Energy =                      -1194.5360450924122233
  @DF-UKS Final Energy: -1194.53604116435031
    Total Energy =                      -1194.5360411643503085
  @DF-UKS Final Energy: -1194.53605209653097
    Total Energy =                      -1194.5360520965311935
  @DF-UKS Final Energy: -1194.53604447391876
    Total Energy =                      -1194.5360444739187642
  **** Optimization is complete! (in 9 steps) ****
    Final optimized geometry and variables:
  @DF-UKS Final Energy: -1194.53613983184277
    Total Energy =                      -1194.5361398318427746
  @DF-UKS Final Energy: -1194.53613974780387
    Total Energy =                      -1194.5361397478038725
  @DF-UKS Final Energy: -1194.53613975008739
    Total Energy =                      -1194.5361397500873863
  @DF-UKS Final Energy: -1194.53613973291385
    Total Energy =                      -1194.5361397329138526
  @DF-UKS Final Energy: -1194.53613973111078
    Total Energy =                      -1194.5361397311107794
  @DF-UKS Final Energy: -1194.53613978815019
    Total Energy =                      -1194.5361397881501944
  @DF-UKS Final Energy: -1194.53613978927615
    Total Energy =                      -1194.5361397892759214
  @DF-UKS Final Energy: -1194.53613983184141
    Total Energy =                      -1194.5361398318411830
  @DF-UKS Final Energy: -1194.53613974780546
    Total Energy =                      -1194.5361397478054641
  @DF-UKS Final Energy: -1194.53613975008807
    Total Energy =                      -1194.5361397500880685
  @DF-UKS Final Energy: -1194.53613973291749
    Total Energy =                      -1194.5361397329177180
  @DF-UKS Final Energy: -1194.53613973111442
    Total Energy =                      -1194.5361397311144174
  @DF-UKS Final Energy: -1194.53613978815247
    Total Energy =                      -1194.5361397881524681
  @DF-UKS Final Energy: -1194.53613978928206
    Total Energy =                      -1194.5361397892820605
  @DF-UKS Final Energy: -1194.53613967979368
    Total Energy =                      -1194.5361396797936777
  @DF-UKS Final Energy: -1194.53613968128161
    Total Energy =                      -1194.5361396812816110
  Basis Set: AUG-CC-PVTZ
    Blend: AUG-CC-PVTZ
  Basis Set: (AUG-CC-PVTZ AUX)
    Blend: AUG-CC-PVTZ-JKFIT
  @DF-UKS Final Energy: -1194.53613964058695
    Total Energy =                      -1194.5361396405867254
  Basis Set: AUG-CC-PVTZ
    Blend: AUG-CC-PVTZ
  Basis Set: (AUG-CC-PVTZ AUX)
    Blend: AUG-CC-PVTZ-JKFIT
  @DF-UKS Final Energy: -1194.53613964078022
    Total Energy =                      -1194.5361396407799930
  Multiplicity = 1
  Basis Set: AUG-CC-PVTZ
    Blend: AUG-CC-PVTZ
  Basis Set: (AUG-CC-PVTZ AUX)
    Blend: AUG-CC-PVTZ-JKFIT
  @DF-UKS Final Energy: -1194.53613964650413
    Total Energy =                      -1194.5361396465038979
    Molecular point group: cs

    Geometry (in Angstrom), charge = -2, multiplicity = 1:

       Center              X                  Y                   Z               Mass
    ------------   -----------------  -----------------  -----------------  -----------------
         S            0.651366584270     0.438166672290     0.000000000000    31.972071174400
         S            0.651266026313    -1.670009947987     0.000000000000    31.972071174400
         S           -1.302632610582     1.231843275697     0.000000000000    31.972071174400

  Charge       = -2
  Multiplicity = 1
  Basis Set: AUG-CC-PVTZ
    Blend: AUG-CC-PVTZ
  Basis Set: (AUG-CC-PVTZ AUX)
    Blend: AUG-CC-PVTZ-JKFIT

    Orbital Energies [Eh]
    ---------------------

    Alpha Occupied:

       1Ap   -88.879734     2Ap   -88.822231     3Ap   -88.822223
       4Ap    -7.786845     5Ap    -7.733131     6Ap    -7.733112
       7Ap    -5.697905     8Ap    -5.694756     1App   -5.688437
       9Ap    -5.645017    10Ap    -5.645000    11Ap    -5.637592
      12Ap    -5.637572     2App   -5.636884     3App   -5.636866
      13Ap    -0.533652    14Ap    -0.419612    15Ap    -0.313457
      16Ap    -0.097476    17Ap    -0.078819     4App   -0.065384
       5App    0.025283    18Ap     0.033813    19Ap     0.040858
       6App    0.090036

    Alpha Virtual:

      20Ap     0.256460    21Ap     0.258299    22Ap     0.303876
      23Ap     0.332238     7App    0.336293    24Ap     0.337434
       8App    0.343233     9App    0.343556    25Ap     0.344537
      26Ap     0.391374    27Ap     0.402858    28Ap     0.419041
      29Ap     0.473104    30Ap     0.485974    10App    0.531151
      11App    0.553907    31Ap     0.554886    32Ap     0.585203
      33Ap     0.589888    34Ap     0.593761    12App    0.608319
      35Ap     0.608952    13App    0.625777    14App    0.648068
      36Ap     0.651761    37Ap     0.653522    38Ap     0.677213
      15App    0.691560    39Ap     0.718218    16App    0.805881
      40Ap     0.829610    41Ap     0.875227    17App    0.881107
      42Ap     0.891176    43Ap     0.893984    44Ap     0.905072
      18App    0.913311    19App    0.915864    45Ap     0.924972
      20App    0.933087    46Ap     0.936905    47Ap     0.960696
      48Ap     1.001102    21App    1.001231    49Ap     1.005485
      22App    1.025705    50Ap     1.027562    51Ap     1.037008
      52Ap     1.049592    23App    1.069539    24App    1.107067
      53Ap     1.107665    25App    1.110299    54Ap     1.151439
      55Ap     1.156729    26App    1.159016    27App    1.162614
      56Ap     1.176202    57Ap     1.203031    58Ap     1.221924
      59Ap     1.295250    28App    1.323164    29App    1.339415
      60Ap     1.370541    61Ap     1.383095    30App    1.387007
      62Ap     1.462567    31App    1.471378    63Ap     1.498884
      64Ap     1.512317    65Ap     1.546103    32App    1.551503
      33App    1.562694    66Ap     1.644503    67Ap     1.647475
      68Ap     1.746764    69Ap     1.863077    70Ap     2.182008
      34App    2.192763    35App    2.203651    71Ap     2.220773
      72Ap     2.243336    36App    2.249238    37App    2.254373
      73Ap     2.268347    74Ap     2.269388    75Ap     2.333391
      38App    2.340783    76Ap     2.357181    39App    2.396264
      40App    2.396650    77Ap     2.397768    78Ap     2.399479
      41App    2.412575    79Ap     2.434513    80Ap     2.466194
      42App    2.468692    43App    2.481262    81Ap     2.509776
      82Ap     2.521885    44App    2.538921    83Ap     2.547563
      45App    2.551841    84Ap     2.566031    85Ap     2.628445
      46App    2.629244    47App    2.632872    86Ap     2.643272
      87Ap     2.643357    48App    2.644783    49App    2.688599
      88Ap     2.727624    89Ap     2.746395    90Ap     2.793819
      91Ap     2.806971    92Ap     2.809192    93Ap     2.912085
      50App    2.912488    51App    2.913126    94Ap     2.999816
      95Ap     3.944997    96Ap     3.979657    97Ap     4.959994
      98Ap     5.523311    99Ap     6.033715

    Beta Occupied:

       1Ap   -88.879734     2Ap   -88.822231     3Ap   -88.822223
       4Ap    -7.786845     5Ap    -7.733131     6Ap    -7.733112
       7Ap    -5.697905     8Ap    -5.694756     1App   -5.688437
       9Ap    -5.645017    10Ap    -5.645000    11Ap    -5.637592
      12Ap    -5.637572     2App   -5.636884     3App   -5.636866
      13Ap    -0.533652    14Ap    -0.419612    15Ap    -0.313457
      16Ap    -0.097476    17Ap    -0.078819     4App   -0.065384
       5App    0.025283    18Ap     0.033813    19Ap     0.040858
       6App    0.090036

    Beta Virtual:

      20Ap     0.256460    21Ap     0.258299    22Ap     0.303876
      23Ap     0.332238     7App    0.336293    24Ap     0.337434
       8App    0.343233     9App    0.343556    25Ap     0.344537
      26Ap     0.391374    27Ap     0.402858    28Ap     0.419041
      29Ap     0.473104    30Ap     0.485974    10App    0.531151
      11App    0.553907    31Ap     0.554886    32Ap     0.585203
      33Ap     0.589888    34Ap     0.593761    12App    0.608319
      35Ap     0.608952    13App    0.625777    14App    0.648068
      36Ap     0.651761    37Ap     0.653522    38Ap     0.677213
      15App    0.691560    39Ap     0.718218    16App    0.805881
      40Ap     0.829610    41Ap     0.875227    17App    0.881107
      42Ap     0.891176    43Ap     0.893984    44Ap     0.905072
      18App    0.913311    19App    0.915864    45Ap     0.924972
      20App    0.933087    46Ap     0.936905    47Ap     0.960696
      48Ap     1.001102    21App    1.001231    49Ap     1.005485
      22App    1.025705    50Ap     1.027562    51Ap     1.037008
      52Ap     1.049592    23App    1.069539    24App    1.107067
      53Ap     1.107665    25App    1.110299    54Ap     1.151439
      55Ap     1.156729    26App    1.159016    27App    1.162614
      56Ap     1.176202    57Ap     1.203031    58Ap     1.221924
      59Ap     1.295250    28App    1.323164    29App    1.339415
      60Ap     1.370541    61Ap     1.383095    30App    1.387007
      62Ap     1.462567    31App    1.471378    63Ap     1.498884
      64Ap     1.512317    65Ap     1.546103    32App    1.551503
      33App    1.562694    66Ap     1.644503    67Ap     1.647475
      68Ap     1.746764    69Ap     1.863077    70Ap     2.182008
      34App    2.192763    35App    2.203651    71Ap     2.220773
      72Ap     2.243336    36App    2.249238    37App    2.254373
      73Ap     2.268347    74Ap     2.269388    75Ap     2.333391
      38App    2.340783    76Ap     2.357181    39App    2.396264
      40App    2.396650    77Ap     2.397768    78Ap     2.399479
      41App    2.412575    79Ap     2.434513    80Ap     2.466194
      42App    2.468692    43App    2.481262    81Ap     2.509776
      82Ap     2.521885    44App    2.538921    83Ap     2.547563
      45App    2.551841    84Ap     2.566031    85Ap     2.628445
      46App    2.629244    47App    2.632872    86Ap     2.643272
      87Ap     2.643357    48App    2.644783    49App    2.688599
      88Ap     2.727624    89Ap     2.746395    90Ap     2.793819
      91Ap     2.806971    92Ap     2.809192    93Ap     2.912085
      50App    2.912488    51App    2.913126    94Ap     2.999816
      95Ap     3.944997    96Ap     3.979657    97Ap     4.959994
      98Ap     5.523311    99Ap     6.033715

    Final Occupation by Irrep:
             Ap   App
    DOCC [    19,    6 ]
    SOCC [     0,    0 ]

  @DF-UKS Final Energy: -1194.53613965063710

   => Energetics <=

    Nuclear Repulsion Energy =            167.2155978339620219
    One-Electron Energy =               -2002.2378445686103987
    Two-Electron Energy =                 699.7983571330009909
    DFT Exchange-Correlation Energy =     -59.5149361217699138
    Empirical Dispersion Energy =           0.0000000000000000
    VV10 Nonlocal Energy =                  0.2026860727802482
    Total Energy =                      -1194.5361396506370966

  UHF NO Occupations:
  HONO-2 :   18 Ap 2.0000000
  HONO-1 :    6App 2.0000000
  HONO-0 :   19 Ap 2.0000000
  LUNO+0 :   20 Ap 0.0000000
  LUNO+1 :   21 Ap 0.0000000
  LUNO+2 :   22 Ap 0.0000000
  LUNO+3 :    7App 0.0000000

Computation Completed

Properties will be evaluated at   0.000000,   0.000000,   0.000000 [a0]

Properties computed using the SCF density matrix

  Nuclear Dipole Moment: [e a0]
     X:     0.0000      Y:     0.0000      Z:     0.0000

  Electronic Dipole Moment: [e a0]
     X:     0.5971      Y:     0.4004      Z:     0.0000

  Dipole Moment: [e a0]
     X:     0.5971      Y:     0.4004      Z:     0.0000     Total:     0.7189

  Dipole Moment: [D]
     X:     1.5176      Y:     1.0177      Z:     0.0000     Total:     1.8272

*** tstop() called on c2-18.compute.lan at Tue Feb  2 19:28:42 2021
Module time:
	user time   =     332.04 seconds =       5.53 minutes
	system time =       1.64 seconds =       0.03 minutes
	total time  =        334 seconds =       5.57 minutes
Total time:
	user time   =   16590.15 seconds =     276.50 minutes
	system time =     119.30 seconds =       1.99 minutes
	total time  =      17335 seconds =     288.92 minutes

         ----------------------------------------------------------
                                   FINDIF
                     R. A. King and Jonathon Misiewicz
         ---------------------------------------------------------

  Computing second-derivative from energies using projected,
  symmetry-adapted, cartesian coordinates.

  13 energies passed in, including the reference geometry.
    Using 3-point formula.
    Energy without displacement: -1194.5361398318
    Check energies below for precision!
    0: -1        :     -1194.5361397478
    0: 1         :     -1194.5361397501
    1: -1        :     -1194.5361397329
    1: 1         :     -1194.5361397311
    2: -1        :     -1194.5361397882
    2: 1         :     -1194.5361397893
    0: 1, 1: 1   :     -1194.5361396798
    0: -1, 1: -1 :     -1194.5361396813
    0: 1, 2: 1   :     -1194.5361396406
    0: -1, 2: -1 :     -1194.5361396408
    1: 1, 2: 1   :     -1194.5361396465
    1: -1, 2: -1 :     -1194.5361396506

-------------------------------------------------------------

  ==> Harmonic Vibrational Analysis <==

  non-mass-weighted Hessian:       Symmetric? True   Hermitian? True   Lin Dep Dim?  6 (0)
  projection of translations (True) and rotations (True) removed 6 degrees of freedom (6)
  total projector:                 Symmetric? True   Hermitian? True   Lin Dep Dim?  6 (6)
  mass-weighted Hessian:           Symmetric? True   Hermitian? True   Lin Dep Dim?  6 (0)
  pre-proj  low-frequency mode:    0.0000i [cm^-1]
  pre-proj  low-frequency mode:    0.0000i [cm^-1]
  pre-proj  low-frequency mode:    0.0000  [cm^-1]
  pre-proj  low-frequency mode:    0.0000  [cm^-1]
  pre-proj  low-frequency mode:    0.0000  [cm^-1]
  pre-proj  low-frequency mode:    0.0000  [cm^-1]
  pre-proj  all modes:['0.0000i' '0.0000i' '0.0000' '0.0000' '0.0000' '0.0000' '190.2028'
 '458.6549' '480.5060']
  projected mass-weighted Hessian: Symmetric? True   Hermitian? True   Lin Dep Dim?  6 (6)
  post-proj low-frequency mode:    0.0000i [cm^-1] (TR)
  post-proj low-frequency mode:    0.0000i [cm^-1] (TR)
  post-proj low-frequency mode:    0.0000  [cm^-1] (TR)
  post-proj low-frequency mode:    0.0000  [cm^-1] (TR)
  post-proj low-frequency mode:    0.0000  [cm^-1] (TR)
  post-proj low-frequency mode:    0.0000  [cm^-1] (TR)
  post-proj  all modes:['0.0000i' '0.0000i' '0.0000' '0.0000' '0.0000' '0.0000' '190.2028'
 '458.6549' '480.5060']

  Vibration                       7                   8                   9
  Freq [cm^-1]                 190.2028            458.6549            480.5060
  Irrep                           Ap                  Ap                  Ap
  Reduced mass [u]             31.9721             31.9721             31.9721
  Force const [mDyne/A]         0.6815              3.9627              4.3493
  Turning point v=0 [a0]        0.1407              0.0906              0.0885
  RMS dev v=0 [a0 u^1/2]        0.5626              0.3623              0.3540
  Char temp [K]                273.6595            659.9022            691.3411
  ----------------------------------------------------------------------------------
      1   S               -0.38 -0.25  0.00    0.58  0.34  0.00   -0.39  0.65  0.00
      2   S                0.52 -0.36  0.00   -0.06 -0.49 -0.00   -0.01 -0.48  0.00
      3   S               -0.13  0.61  0.00   -0.52  0.15 -0.00    0.40 -0.17  0.00

  ==> Thermochemistry Components <==

  Entropy, S
    Electronic S            0.000 [cal/(mol K)]        0.000 [J/(mol K)]       0.00000000 [mEh/K] (multiplicity = 1)
    Translational S        39.594 [cal/(mol K)]      165.660 [J/(mol K)]       0.06309659 [mEh/K] (mol. weight = 95.9162 [u], P = 101325.00 [Pa])
    Rotational S           25.588 [cal/(mol K)]      107.059 [J/(mol K)]       0.04077674 [mEh/K] (symmetry no. = 1)
    Vibrational S           3.705 [cal/(mol K)]       15.500 [J/(mol K)]       0.00590362 [mEh/K]
  Total S                  68.886 [cal/(mol K)]      288.219 [J/(mol K)]       0.10977695 [mEh/K]
  Correction S              0.000 [cal/(mol K)]        0.000 [J/(mol K)]       0.00000000 [mEh/K]

  Constant volume heat capacity, Cv
    Electronic Cv           0.000 [cal/(mol K)]        0.000 [J/(mol K)]       0.00000000 [mEh/K]
    Translational Cv        2.981 [cal/(mol K)]       12.472 [J/(mol K)]       0.00475022 [mEh/K]
    Rotational Cv           2.981 [cal/(mol K)]       12.472 [J/(mol K)]       0.00475022 [mEh/K]
    Vibrational Cv          4.488 [cal/(mol K)]       18.780 [J/(mol K)]       0.00715274 [mEh/K]
  Total Cv                 10.450 [cal/(mol K)]       43.723 [J/(mol K)]       0.01665317 [mEh/K]
  Correction Cv             0.000 [cal/(mol K)]        0.000 [J/(mol K)]       0.00000000 [mEh/K]

  Constant pressure heat capacity, Cp
    Electronic Cp           0.000 [cal/(mol K)]        0.000 [J/(mol K)]       0.00000000 [mEh/K]
    Translational Cp        4.968 [cal/(mol K)]       20.786 [J/(mol K)]       0.00791703 [mEh/K]
    Rotational Cp           2.981 [cal/(mol K)]       12.472 [J/(mol K)]       0.00475022 [mEh/K]
    Vibrational Cp          4.488 [cal/(mol K)]       18.780 [J/(mol K)]       0.00715274 [mEh/K]
  Total Cp                 12.437 [cal/(mol K)]       52.037 [J/(mol K)]       0.01981999 [mEh/K]
  Correction Cp             0.000 [cal/(mol K)]        0.000 [J/(mol K)]       0.00000000 [mEh/K]

  ==> Thermochemistry Energy Analysis <==

  Raw electronic energy, E0
  Total E0, Electronic energy at well bottom at 0 [K]                -1194.53613983 [Eh]

  Zero-point energy, ZPE_vib = Sum_i nu_i / 2
    Electronic ZPE          0.000 [kcal/mol]        0.000 [kJ/mol]       0.00000000 [Eh]
    Translational ZPE       0.000 [kcal/mol]        0.000 [kJ/mol]       0.00000000 [Eh]
    Rotational ZPE          0.000 [kcal/mol]        0.000 [kJ/mol]       0.00000000 [Eh]
    Vibrational ZPE         1.615 [kcal/mol]        6.755 [kJ/mol]       0.00257288 [Eh]         564.682 [cm^-1]
  Correction ZPE            1.615 [kcal/mol]        6.755 [kJ/mol]       0.00257288 [Eh]         564.682 [cm^-1]
  Total ZPE, Electronic energy at 0 [K]                              -1194.53356695 [Eh]

  Thermal Energy, E (includes ZPE)
    Electronic E            0.000 [kcal/mol]        0.000 [kJ/mol]       0.00000000 [Eh]
    Translational E         0.889 [kcal/mol]        3.718 [kJ/mol]       0.00141628 [Eh]
    Rotational E            0.889 [kcal/mol]        3.718 [kJ/mol]       0.00141628 [Eh]
    Vibrational E           2.287 [kcal/mol]        9.569 [kJ/mol]       0.00364459 [Eh]
  Correction E              4.064 [kcal/mol]       17.006 [kJ/mol]       0.00647715 [Eh]
  Total E, Electronic energy at  298.15 [K]                          -1194.52966268 [Eh]

  Enthalpy, H_trans = E_trans + k_B * T
    Electronic H            0.000 [kcal/mol]        0.000 [kJ/mol]       0.00000000 [Eh]
    Translational H         1.481 [kcal/mol]        6.197 [kJ/mol]       0.00236046 [Eh]
    Rotational H            0.889 [kcal/mol]        3.718 [kJ/mol]       0.00141628 [Eh]
    Vibrational H           2.287 [kcal/mol]        9.569 [kJ/mol]       0.00364459 [Eh]
  Correction H              4.657 [kcal/mol]       19.485 [kJ/mol]       0.00742133 [Eh]
  Total H, Enthalpy at  298.15 [K]                                   -1194.52871850 [Eh]

  Gibbs free energy, G = H - T * S
    Electronic G            0.000 [kcal/mol]        0.000 [kJ/mol]       0.00000000 [Eh]
    Translational G       -10.324 [kcal/mol]      -43.194 [kJ/mol]      -0.01645179 [Eh]
    Rotational G           -6.740 [kcal/mol]      -28.201 [kJ/mol]      -0.01074131 [Eh]
    Vibrational G           1.182 [kcal/mol]        4.948 [kJ/mol]       0.00188443 [Eh]
  Correction G            -15.881 [kcal/mol]      -66.448 [kJ/mol]      -0.02530867 [Eh]
  Total G, Free enthalpy at  298.15 [K]                              -1194.56144850 [Eh]

    Psi4 stopped on: Tuesday, 02 February 2021 07:28PM
    Psi4 wall time for execution: 4:48:56.44

*** Psi4 exiting successfully. Buy a developer a beer!
