                               Psi4 1.3.2 release

  ==> Input File <==

--------------------------------------------------------------------------
memory 46 GB

basis jerome {
assign pot
assign S aug-cc-pV(T+d)Z

[pot]
spherical
****
 K  0
 S 23 1.00
    2.709796E+07     4.136110E-07
    3.592856E+06     3.860330E-06
    7.222638E+05     2.394640E-05
    1.833976E+05     1.157540E-04
    5.464812E+04     4.697010E-04
    1.830913E+04     1.673720E-03
    6.712501E+03     5.370450E-03
    2.643719E+03     1.572510E-02
    1.103835E+03     4.193360E-02
    4.836777E+02     9.987620E-02
    2.206245E+02     2.019680E-01
    1.041117E+02     3.146270E-01
    5.052749E+01     3.107540E-01
    2.485247E+01     1.421920E-01
    1.128102E+01     1.658490E-02
    5.510166E+00    -2.759760E-04
    2.706914E+00     5.158310E-04
    1.122807E+00    -2.268950E-04
    5.236385E-01     6.652980E-05
    2.355180E-01    -3.685150E-05
    4.157977E-02     1.925250E-05
    2.555456E-02    -2.108420E-05
    1.471495E-02     7.044600E-06
 S 23 1.00
    2.709796E+07    -1.188290E-07
    3.592856E+06    -1.108550E-06
    7.222638E+05    -6.881230E-06
    1.833976E+05    -3.324150E-05
    5.464812E+04    -1.350850E-04
    1.830913E+04    -4.814570E-04
    6.712501E+03    -1.552620E-03
    2.643719E+03    -4.578330E-03
    1.103835E+03    -1.247930E-02
    4.836777E+02    -3.094650E-02
    2.206245E+02    -6.855530E-02
    1.041117E+02    -1.268300E-01
    5.052749E+01    -1.745020E-01
    2.485247E+01    -9.089560E-02
    1.128102E+01     2.506960E-01
    5.510166E+00     5.589630E-01
    2.706914E+00     3.284370E-01
    1.122807E+00     3.392170E-02
    5.236385E-01    -2.100280E-03
    2.355180E-01     1.383960E-03
    4.157977E-02    -5.315630E-04
    2.555456E-02     5.770310E-04
    1.471495E-02    -1.931440E-04
 S 23 1.00
    2.709796E+07     3.917470E-08
    3.592856E+06     3.650640E-07
    7.222638E+05     2.269460E-06
    1.833976E+05     1.094290E-05
    5.464812E+04     4.457360E-05
    1.830913E+04     1.584480E-04
    6.712501E+03     5.128440E-04
    2.643719E+03     1.507690E-03
    1.103835E+03     4.136940E-03
    4.836777E+02     1.024690E-02
    2.206245E+02     2.306520E-02
    1.041117E+02     4.308900E-02
    5.052749E+01     6.238120E-02
    2.485247E+01     3.270420E-02
    1.128102E+01    -1.021980E-01
    5.510166E+00    -3.317970E-01
    2.706914E+00    -3.030100E-01
    1.122807E+00     3.098410E-01
    5.236385E-01     6.732700E-01
    2.355180E-01     2.812200E-01
    4.157977E-02     9.376240E-03
    2.555456E-02    -6.955720E-03
    1.471495E-02     2.069460E-03
 S 23 1.00
    2.709796E+07    -7.564440E-09
    3.592856E+06    -7.055390E-08
    7.222638E+05    -4.380820E-07
    1.833976E+05    -2.115540E-06
    5.464812E+04    -8.601300E-06
    1.830913E+04    -3.064440E-05
    6.712501E+03    -9.892550E-05
    2.643719E+03    -2.917760E-04
    1.103835E+03    -7.977860E-04
    4.836777E+02    -1.985820E-03
    2.206245E+02    -4.449740E-03
    1.041117E+02    -8.390260E-03
    5.052749E+01    -1.206000E-02
    2.485247E+01    -6.568410E-03
    1.128102E+01     2.061430E-02
    5.510166E+00     6.770060E-02
    2.706914E+00     6.639570E-02
    1.122807E+00    -8.237770E-02
    5.236385E-01    -1.727150E-01
    2.355180E-01    -2.310290E-01
    4.157977E-02     5.090040E-01
    2.555456E-02     3.472180E-01
    1.471495E-02     2.809620E-01
 S 1 1.00
    2.555456E-02     1.000000E+00
 S 1 1.00
    1.471495E-02     1.000000E+00
 S 1 1.00
    8.470000E-03     1.000000E+00
 P 16 1.00
    9.533309E+03     4.212010E-05
    1.852081E+03     5.068300E-04
    5.464251E+02     3.311700E-03
    1.966947E+02     1.536840E-02
    7.964112E+01     5.457060E-02
    3.488324E+01     1.473880E-01
    1.604479E+01     2.879240E-01
    7.575632E+00     3.750810E-01
    3.672548E+00     2.545160E-01
    1.771130E+00     6.059280E-02
    8.515199E-01     2.508370E-03
    4.016017E-01     6.688870E-04
    1.851933E-01    -1.486150E-04
    5.523390E-02     4.936010E-05
    2.431085E-02    -3.513850E-05
    1.080339E-02     1.171450E-05
 P 16 1.00
    9.533309E+03    -1.280760E-05
    1.852081E+03    -1.547870E-04
    5.464251E+02    -1.010940E-03
    1.966947E+02    -4.738330E-03
    7.964112E+01    -1.703260E-02
    3.488324E+01    -4.754130E-02
    1.604479E+01    -9.560810E-02
    7.575632E+00    -1.337000E-01
    3.672548E+00    -7.425060E-02
    1.771130E+00     1.646810E-01
    8.515199E-01     4.057630E-01
    4.016017E-01     4.113600E-01
    1.851933E-01     1.734240E-01
    5.523390E-02     1.253640E-02
    2.431085E-02    -3.267140E-03
    1.080339E-02     1.039680E-03
 P 16 1.00
    9.533309E+03     1.764010E-06
    1.852081E+03     2.124880E-05
    5.464251E+02     1.392500E-04
    1.966947E+02     6.509140E-04
    7.964112E+01     2.349940E-03
    3.488324E+01     6.547470E-03
    1.604479E+01     1.326270E-02
    7.575632E+00     1.848520E-02
    3.672548E+00     1.025530E-02
    1.771130E+00    -2.652150E-02
    8.515199E-01    -6.086460E-02
    4.016017E-01    -7.474220E-02
    1.851933E-01    -4.870880E-02
    5.523390E-02     2.245720E-01
    2.431085E-02     5.839280E-01
    1.080339E-02     2.980960E-01
 P 1 1.00
    5.523390E-02     1.000000E+00
 P 1 1.00
    1.080339E-02     1.000000E+00
 P 1 1.00
    4.800000E-03     1.000000E+00
 D 6 1.00
    5.670903E+00     8.285900E-03
    1.459042E+00     2.332530E-02
    5.431827E-01     4.878080E-02
    1.346875E-01     7.349020E-02
    5.516013E-02     2.387630E-01
    1.501876E-02     8.253200E-01
 D 1 1.00
    5.516013E-02     1.000000E+00
 D 1 1.00
    1.501876E-02     1.000000E+00
 D 1 1.00
    6.010000E-03     1.000000E+00
 F 1 1.00
    8.493750E-02     1.000000E+00
 F 1 1.00
    3.398000E-02     1.000000E+00
 ****
}

molecule  {
0 2
S   -1.161275382096    1.069901289788    0.000000000000
S   -1.160278572132   -1.069500299797    0.000000000000
K    1.904975038391   -0.000329036473    0.000000000000
}
set {
basis jerome
reference uhf
g_convergence gau_verytight
e_convergence 10
scf_type pk
freeze_core true
geom_maxiter 100
}

set ccenergy {
e_convergence 10
r_convergence 10
}

e = energy('ccsd(t)')

print_out('Stephenergy {}'.format(e))

--------------------------------------------------------------------------

    Molecular point group: cs

    Geometry (in Angstrom), charge = 0, multiplicity = 2:

       Center              X                  Y                   Z               Mass
    ------------   -----------------  -----------------  -----------------  -----------------
         S           -1.161275382096     1.069901289788     0.000000000000    31.972071174400
         S           -1.160278572132    -1.069500299797     0.000000000000    31.972071174400
         K            1.904975038391    -0.000329036473     0.000000000000    38.963706486400

  Charge       = 0
  Multiplicity = 2
  Basis Set: JEROME
    Blend: AUG-CC-PV(T+D)Z + POT

    Orbital Energies [Eh]
    ---------------------

    Alpha Occupied:

       1Ap  -133.553328     2Ap   -91.913891     3Ap   -91.913687
       4Ap   -14.509774     1App  -11.539761     5Ap   -11.539677
       6Ap   -11.539613     7Ap    -8.910590     8Ap    -8.910346
       2App   -6.599683     3App   -6.599443     9Ap    -6.589264
      10Ap    -6.588934    11Ap    -6.587858    12Ap    -6.587665
      13Ap    -1.768344     4App   -0.977556    14Ap    -0.976865
      15Ap    -0.976325    16Ap    -0.934680    17Ap    -0.767952
       5App   -0.412320    18Ap    -0.398471    19Ap    -0.384214
       6App   -0.305856    20Ap    -0.271072

    Alpha Virtual:

      21Ap    -0.018241     7App    0.002712    22Ap     0.003121
      23Ap     0.006296    24Ap     0.016791     8App    0.017294
      25Ap     0.017461     9App    0.020601    26Ap     0.021402
      27Ap     0.022377    10App    0.022819    28Ap     0.028561
      29Ap     0.033683    30Ap     0.051786    11App    0.051900
      31Ap     0.055558    12App    0.059248    32Ap     0.062179
      13App    0.074935    33Ap     0.075486    34Ap     0.088349
      35Ap     0.106488    36Ap     0.106662    37Ap     0.125977
      14App    0.126488    38Ap     0.128880    39Ap     0.129117
      15App    0.129915    16App    0.133707    40Ap     0.134598
      41Ap     0.152100    42Ap     0.153455    17App    0.154083
      43Ap     0.166024    18App    0.167617    44Ap     0.175502
      19App    0.179295    20App    0.189606    45Ap     0.197942
      46Ap     0.209179    47Ap     0.221909    21App    0.235566
      48Ap     0.248904    49Ap     0.271627    50Ap     0.309063
      51Ap     0.318288    22App    0.333667    52Ap     0.350979
      53Ap     0.358593    23App    0.379658    24App    0.383006
      54Ap     0.384715    55Ap     0.386127    25App    0.389244
      56Ap     0.393963    26App    0.398386    57Ap     0.408857
      27App    0.410592    58Ap     0.430034    59Ap     0.432535
      60Ap     0.441475    28App    0.450450    29App    0.457176
      61Ap     0.465659    30App    0.466769    62Ap     0.492389
      63Ap     0.513050    64Ap     0.532713    31App    0.669910
      32App    0.704878    33App    0.709575    65Ap     0.712565
      66Ap     0.732958    67Ap     0.745422    68Ap     0.781281
      34App    0.802707    69Ap     0.808412    70Ap     0.816547
      35App    0.846332    71Ap     0.850374    72Ap     0.865889
      36App    0.879989    37App    0.907392    73Ap     0.913838
      74Ap     0.939733    75Ap     0.951402    76Ap     0.968832
      77Ap     1.006156    38App    1.013667    39App    1.044295
      78Ap     1.065423    79Ap     1.066653    40App    1.146467
      80Ap     1.172768    81Ap     1.184454    41App    1.189695
      82Ap     1.206518    42App    1.352665    83Ap     1.384629
      84Ap     1.435655    85Ap     1.666051    43App    2.022688
      86Ap     2.032024    44App    2.058776    87Ap     2.064108
      45App    2.073778    88Ap     2.085839    89Ap     2.149525
      46App    2.212128    90Ap     2.278991    47App    2.296475
      91Ap     2.296783    92Ap     2.321168    93Ap     2.375335
      48App    2.392533    94Ap     2.416928    49App    2.419237
      95Ap     2.452094    96Ap     2.466657    50App    2.477385
      51App    2.507313    52App    2.535732    97Ap     2.558945
      53App    2.564022    98Ap     2.634419    99Ap     2.647563
     100Ap     2.686969   101Ap     2.689158    54App    2.819003
     102Ap     2.852971   103Ap     3.897941   104Ap     4.904108
     105Ap     5.740501    55App    7.409713   106Ap     7.413796
     107Ap     7.429802    56App    7.431248    57App    7.433044
     108Ap     7.453330    58App    7.495341   109Ap     7.516868
     110Ap     7.581772   111Ap     7.611331

    Beta Occupied:

       1Ap  -133.553354     2Ap   -91.908235     3Ap   -91.908055
       4Ap   -14.509810     1App  -11.539805     5Ap   -11.539716
       6Ap   -11.539648     7Ap    -8.904438     8Ap    -8.904193
       9Ap    -6.586508    10Ap    -6.586182    11Ap    -6.584293
      12Ap    -6.584115     2App   -6.574885     3App   -6.574742
      13Ap    -1.768536     4App   -0.977765    14Ap    -0.976478
      15Ap    -0.975674    16Ap    -0.894422    17Ap    -0.697271
      18Ap    -0.383831    19Ap    -0.375509     5App   -0.283511
      20Ap    -0.258166

    Beta Virtual:

      21Ap    -0.018255     6App    0.002746    22Ap     0.003135
      23Ap     0.006280    24Ap     0.016786     7App    0.017070
      25Ap     0.017462     8App    0.020633    26Ap     0.021413
      27Ap     0.022451     9App    0.022941    28Ap     0.028566
      29Ap     0.033556    10App    0.044026    30Ap     0.051751
      31Ap     0.055881    11App    0.059745    12App    0.060012
      32Ap     0.062135    13App    0.075157    33Ap     0.075764
      34Ap     0.087914    35Ap     0.106389    36Ap     0.108771
      37Ap     0.126298    14App    0.126593    38Ap     0.128801
      15App    0.129825    39Ap     0.130046    40Ap     0.134660
      16App    0.135368    41Ap     0.151852    42Ap     0.153817
      17App    0.166141    43Ap     0.168210    18App    0.172560
      44Ap     0.175107    19App    0.182950    20App    0.190741
      45Ap     0.204192    46Ap     0.209107    47Ap     0.222734
      21App    0.235872    48Ap     0.249720    49Ap     0.270694
      50Ap     0.315047    51Ap     0.321122    52Ap     0.352498
      22App    0.352932    53Ap     0.362453    54Ap     0.385685
      23App    0.387961    55Ap     0.390233    24App    0.390658
      25App    0.391966    56Ap     0.394083    26App    0.399774
      27App    0.410535    57Ap     0.411014    58Ap     0.432498
      59Ap     0.436287    60Ap     0.444170    28App    0.463362
      29App    0.467610    61Ap     0.470274    30App    0.475088
      62Ap     0.493478    63Ap     0.516562    64Ap     0.532918
      31App    0.693894    65Ap     0.720286    32App    0.736262
      66Ap     0.738690    33App    0.739971    67Ap     0.748520
      68Ap     0.794247    69Ap     0.808011    34App    0.820148
      70Ap     0.834027    71Ap     0.863080    35App    0.880585
      72Ap     0.888947    36App    0.913707    37App    0.914459
      73Ap     0.921078    74Ap     0.943829    75Ap     0.959207
      76Ap     0.976070    77Ap     1.017078    38App    1.026042
      39App    1.054788    78Ap     1.068111    79Ap     1.071646
      40App    1.158681    80Ap     1.180906    81Ap     1.184177
      41App    1.196114    82Ap     1.209422    42App    1.368238
      83Ap     1.386514    84Ap     1.447723    85Ap     1.681893
      43App    2.038320    86Ap     2.046798    44App    2.074464
      87Ap     2.079247    88Ap     2.088156    45App    2.089849
      89Ap     2.151518    46App    2.232784    90Ap     2.280895
      91Ap     2.301464    47App    2.313058    92Ap     2.323897
      93Ap     2.388948    48App    2.405981    94Ap     2.431151
      49App    2.451800    95Ap     2.462214    96Ap     2.489238
      50App    2.501350    51App    2.534249    52App    2.560374
      97Ap     2.575396    53App    2.580990    98Ap     2.640403
      99Ap     2.653644   100Ap     2.691389   101Ap     2.692932
      54App    2.840419   102Ap     2.855862   103Ap     3.901761
     104Ap     4.915321   105Ap     5.750931    55App    7.415974
     106Ap     7.420213   107Ap     7.436430    56App    7.437831
      57App    7.439240   108Ap     7.454416    58App    7.501367
     109Ap     7.517740   110Ap     7.583571   111Ap     7.613303

    Final Occupation by Irrep:
             Ap   App
    DOCC [    20,    5 ]
    SOCC [     0,    1 ]

  @UHF Final Energy: -1394.31055479099859

   => Energetics <=

    Nuclear Repulsion Energy =            162.4090504333542526
    One-Electron Energy =               -2249.9928973092892193
    Two-Electron Energy =                 693.2732920849360880
    Total Energy =                      -1394.3105547909985944

  UHF NO Occupations:
  HONO-2 :   20 Ap 1.9975134
  HONO-1 :    5App 1.9859571
  HONO-0 :    6App 1.0000000
  LUNO+0 :    7App 0.0140429
  LUNO+1 :   21 Ap 0.0024866
  LUNO+2 :   22 Ap 0.0022424
  LUNO+3 :   23 Ap 0.0002942

Computation Completed

Properties will be evaluated at   0.000000,   0.000000,   0.000000 [a0]

Properties computed using the SCF density matrix

  Nuclear Dipole Moment: [e a0]
     X:    -1.7959      Y:     0.0003      Z:     0.0000

  Electronic Dipole Moment: [e a0]
     X:     6.3952      Y:     0.0011      Z:     0.0000

  Dipole Moment: [e a0]
     X:     4.5993      Y:     0.0014      Z:     0.0000     Total:     4.5993

  Dipole Moment: [D]
     X:    11.6903      Y:     0.0035      Z:     0.0000     Total:    11.6903

*** tstop() called on d3-6.compute.lan at Fri Mar  5 14:19:59 2021
Module time:
	user time   =     268.11 seconds =       4.47 minutes
	system time =       4.24 seconds =       0.07 minutes
	total time  =         66 seconds =       1.10 minutes
Total time:
	user time   =     268.11 seconds =       4.47 minutes
	system time =       4.24 seconds =       0.07 minutes
	total time  =         66 seconds =       1.10 minutes
 MINTS: Wrapper to libmints.
   by Justin Turney

   Calculation information:
      Number of threads:                12
      Number of atoms:                   3
      Number of AO shells:              53
      Number of SO shells:              53
      Number of primitives:            287
      Number of atomic orbitals:       199
      Number of basis functions:       169

      Number of irreps:                  2
      Integral cutoff                 0.00e+00
      Number of functions per irrep: [ 111   58 ]

 OEINTS: Overlap, kinetic, potential, dipole, and quadrupole integrals
         stored in file 35.

      Computing two-electron integrals...done
      Computed 50942209 non-zero two-electron integrals.
        Stored in file 33.

*** tstart() called on d3-6.compute.lan
*** at Fri Mar  5 14:22:05 2021

	Wfn Parameters:
	--------------------
	Wavefunction         = CCSD_T
	Number of irreps     = 2
	Number of MOs        = 169
	Number of active MOs = 150
	AO-Basis             = NONE
	Semicanonical        = false
	Reference            = UHF
	Print Level          = 1

	IRREP	# MOs	# FZDC	# DOCC	# SOCC	# VIRT	# FZVR
	-----	-----	------	------	------	------	------
	 Ap	   111	    15	    5	    0	    91	    0
	 App	   58	    4	    1	    1	    52	    0
	Transforming integrals...
	IWL integrals will be deleted.
	(OO|OO)...
	Presorting SO-basis two-electron integrals.
	Sorting File: SO Ints (nn|nn) nbuckets = 1
	Transforming the one-electron integrals and constructing Fock matrices
	Starting AA/AB first half-transformation.
	Sorting AA/AB half-transformed integrals.
	Starting BB first half-transformation.
	Sorting BB half-transformed integrals.
	First half integral transformation complete.
	Starting AA second half-transformation.
	Starting AB second half-transformation.
	Starting BB second half-transformation.
	Two-electron integral transformation complete.
	(OO|OV)...
	Starting AA second half-transformation.
	Starting AB second half-transformation.
	Starting BB second half-transformation.
	Two-electron integral transformation complete.
	(OO|VV)...
	Starting AA second half-transformation.
	Starting AB second half-transformation.
	Starting BB second half-transformation.
	Two-electron integral transformation complete.
	(OV|OO)...
	Starting AA/AB first half-transformation.
	Sorting AA/AB half-transformed integrals.
	Starting BB first half-transformation.
	Sorting BB half-transformed integrals.
	First half integral transformation complete.
	Starting AA second half-transformation.
	Starting AB second half-transformation.
	Starting BB second half-transformation.
	Two-electron integral transformation complete.
	(OV|OV)...
	Starting AA second half-transformation.
	Starting AB second half-transformation.
	Starting BB second half-transformation.
	Two-electron integral transformation complete.
	(OV|VV)...
	Starting AA second half-transformation.
	Starting AB second half-transformation.
	Starting BB second half-transformation.
	Two-electron integral transformation complete.
	(VV|OO)...
	Starting AA/AB first half-transformation.
	Sorting AA/AB half-transformed integrals.
	Starting BB first half-transformation.
	Sorting BB half-transformed integrals.
	First half integral transformation complete.
	Starting AA second half-transformation.
	Starting AB second half-transformation.
	Starting BB second half-transformation.
	Two-electron integral transformation complete.
	(VV|OV)...
	Starting AA second half-transformation.
	Starting AB second half-transformation.
	Starting BB second half-transformation.
	Two-electron integral transformation complete.
	(VV|VV)...
	Starting AA second half-transformation.
	Starting AB second half-transformation.
	Starting BB second half-transformation.
	Two-electron integral transformation complete.
	Frozen core energy     =  -1525.84516225221387

	Size of irrep 0 of <AB|CD> integrals:     29.387 (MW) /    235.098 (MB)
	Size of irrep 1 of <AB|CD> integrals:     22.392 (MW) /    179.135 (MB)
	Total:                                    51.779 (MW) /    414.233 (MB)

	Size of irrep 0 of <ab|cd> integrals:     29.954 (MW) /    239.630 (MB)
	Size of irrep 1 of <ab|cd> integrals:     23.261 (MW) /    186.091 (MB)
	Total:                                    53.215 (MW) /    425.720 (MB)

	Size of irrep 0 of <Ab|Cd> integrals:    121.815 (MW) /    974.523 (MB)
	Size of irrep 1 of <Ab|Cd> integrals:     91.298 (MW) /    730.384 (MB)
	Total:                                   213.113 (MW) /   1704.907 (MB)

	Size of irrep 0 of <IA|BC> integrals:      6.141 (MW) /     49.125 (MB)
	Size of irrep 1 of <IA|BC> integrals:      4.183 (MW) /     33.465 (MB)
	Total:                                    10.324 (MW) /     82.590 (MB)

	Size of irrep 0 of <ia|bc> integrals:      5.634 (MW) /     45.070 (MB)
	Size of irrep 1 of <ia|bc> integrals:      3.434 (MW) /     27.472 (MB)
	Total:                                     9.068 (MW) /     72.542 (MB)

	Size of irrep 0 of <Ia|Bc> integrals:      6.192 (MW) /     49.534 (MB)
	Size of irrep 1 of <Ia|Bc> integrals:      4.271 (MW) /     34.169 (MB)
	Total:                                    10.463 (MW) /     83.703 (MB)

	Size of irrep 0 of <iA|bC> integrals:      5.596 (MW) /     44.766 (MB)
	Size of irrep 1 of <iA|bC> integrals:      3.354 (MW) /     26.830 (MB)
	Total:                                     8.950 (MW) /     71.597 (MB)

	Size of irrep 0 of tIjAb amplitudes:       0.298 (MW) /      2.384 (MB)
	Size of irrep 1 of tIjAb amplitudes:       0.143 (MW) /      1.147 (MB)
	Total:                                     0.441 (MW) /      3.531 (MB)

	Nuclear Rep. energy          =    162.40905043335425
	SCF energy                   =  -1394.31055479099859
	One-electron energy          =    -55.38161134700253
	Two-electron (AA) energy     =      6.02025021475620
	Two-electron (BB) energy     =      4.29579547245379
	Two-electron (AB) energy     =     14.19112268763823
	Two-electron energy          =     24.50716837484822
	Reference energy             =  -1394.31055479101406

*** tstop() called on d3-6.compute.lan at Fri Mar  5 14:23:48 2021
Module time:
	user time   =     369.90 seconds =       6.17 minutes
	system time =      30.87 seconds =       0.51 minutes
	total time  =        103 seconds =       1.72 minutes
Total time:
	user time   =     766.26 seconds =      12.77 minutes
	system time =      36.92 seconds =       0.62 minutes
	total time  =        295 seconds =       4.92 minutes
            **************************
            *                        *
            *        CCENERGY        *
            *                        *
            **************************

    Nuclear Rep. energy (wfn)     =  162.409050433354253
    SCF energy          (wfn)     = -1394.310554790998594
    Reference energy    (file100) = -1394.310554791014056

    Input parameters:
    -----------------
    Wave function   =     CCSD_T
    Reference wfn   =     UHF
    Brueckner       =     No
    Memory (Mbytes) =     46000.0
    Maxiter         =     50
    R_Convergence   =     1.0e-10
    E_Convergence   =     1.0e-10
    Restart         =     Yes
    DIIS            =     Yes
    AO Basis        =     NONE
    ABCD            =     NEW
    Cache Level     =     2
    Cache Type      =     LRU
    Print Level     =     1
    Num. of threads =     12
    # Amps to Print =     10
    Print MP2 Amps? =     No
    Analyze T2 Amps =     No
    Print Pair Ener =     No
    Local CC        =     No
    SCS-MP2         =     False
    SCSN-MP2        =     False
    SCS-CCSD        =     False

MP2 correlation energy -0.3461830635772308
                Solving CC Amplitude Equations
                ------------------------------
  Iter             Energy              RMS        T1Diag      D1Diag    New D1Diag    D2Diag
  ----     ---------------------    ---------   ----------  ----------  ----------   --------
     0        -0.346183063577231    0.000e+00    0.000000    0.000000    0.000000    0.000000
     1        -0.359207455742792    8.517e-02    0.016613    0.000000    0.000000    0.000000
     2        -0.370157763027977    2.703e-02    0.019202    0.000000    0.000000    0.000000
     3        -0.372492502068212    1.300e-02    0.022974    0.000000    0.000000    0.000000
     4        -0.372369857786423    3.549e-03    0.024099    0.000000    0.000000    0.000000
     5        -0.372335498493345    1.391e-03    0.024389    0.000000    0.000000    0.000000
     6        -0.372328362811266    6.098e-04    0.024473    0.000000    0.000000    0.000000
     7        -0.372324859838199    3.191e-04    0.024500    0.000000    0.000000    0.000000
     8        -0.372326533164200    1.769e-04    0.024504    0.000000    0.000000    0.000000
     9        -0.372330211857403    1.042e-04    0.024506    0.000000    0.000000    0.000000
    10        -0.372328446469694    5.785e-05    0.024508    0.000000    0.000000    0.000000
    11        -0.372328424184262    2.511e-05    0.024508    0.000000    0.000000    0.000000
    12        -0.372328006555486    1.238e-05    0.024508    0.000000    0.000000    0.000000
    13        -0.372327841043008    6.415e-06    0.024508    0.000000    0.000000    0.000000
    14        -0.372327871562772    3.684e-06    0.024508    0.000000    0.000000    0.000000
    15        -0.372327882894541    2.343e-06    0.024508    0.000000    0.000000    0.000000
    16        -0.372327883260985    1.277e-06    0.024508    0.000000    0.000000    0.000000

      * MP2 total energy                      = -1394.656737854591256
      * CCSD total energy                     = -1394.682882678523583
      * CCSD(T) total energy                     = -1394.705499687786642
*** Psi4 exiting successfully. Buy a developer a beer!
