                               Psi4 1.3.2 release

  ==> Input File <==

--------------------------------------------------------------------------
memory 46 GB

basis jerome {
assign pot
assign S aug-cc-pV(T+d)Z

[pot]
spherical
****
 K  0
 S 23 1.00
    2.709796E+07     4.136110E-07
    3.592856E+06     3.860330E-06
    7.222638E+05     2.394640E-05
    1.833976E+05     1.157540E-04
    5.464812E+04     4.697010E-04
    1.830913E+04     1.673720E-03
    6.712501E+03     5.370450E-03
    2.643719E+03     1.572510E-02
    1.103835E+03     4.193360E-02
    4.836777E+02     9.987620E-02
    2.206245E+02     2.019680E-01
    1.041117E+02     3.146270E-01
    5.052749E+01     3.107540E-01
    2.485247E+01     1.421920E-01
    1.128102E+01     1.658490E-02
    5.510166E+00    -2.759760E-04
    2.706914E+00     5.158310E-04
    1.122807E+00    -2.268950E-04
    5.236385E-01     6.652980E-05
    2.355180E-01    -3.685150E-05
    4.157977E-02     1.925250E-05
    2.555456E-02    -2.108420E-05
    1.471495E-02     7.044600E-06
 S 23 1.00
    2.709796E+07    -1.188290E-07
    3.592856E+06    -1.108550E-06
    7.222638E+05    -6.881230E-06
    1.833976E+05    -3.324150E-05
    5.464812E+04    -1.350850E-04
    1.830913E+04    -4.814570E-04
    6.712501E+03    -1.552620E-03
    2.643719E+03    -4.578330E-03
    1.103835E+03    -1.247930E-02
    4.836777E+02    -3.094650E-02
    2.206245E+02    -6.855530E-02
    1.041117E+02    -1.268300E-01
    5.052749E+01    -1.745020E-01
    2.485247E+01    -9.089560E-02
    1.128102E+01     2.506960E-01
    5.510166E+00     5.589630E-01
    2.706914E+00     3.284370E-01
    1.122807E+00     3.392170E-02
    5.236385E-01    -2.100280E-03
    2.355180E-01     1.383960E-03
    4.157977E-02    -5.315630E-04
    2.555456E-02     5.770310E-04
    1.471495E-02    -1.931440E-04
 S 23 1.00
    2.709796E+07     3.917470E-08
    3.592856E+06     3.650640E-07
    7.222638E+05     2.269460E-06
    1.833976E+05     1.094290E-05
    5.464812E+04     4.457360E-05
    1.830913E+04     1.584480E-04
    6.712501E+03     5.128440E-04
    2.643719E+03     1.507690E-03
    1.103835E+03     4.136940E-03
    4.836777E+02     1.024690E-02
    2.206245E+02     2.306520E-02
    1.041117E+02     4.308900E-02
    5.052749E+01     6.238120E-02
    2.485247E+01     3.270420E-02
    1.128102E+01    -1.021980E-01
    5.510166E+00    -3.317970E-01
    2.706914E+00    -3.030100E-01
    1.122807E+00     3.098410E-01
    5.236385E-01     6.732700E-01
    2.355180E-01     2.812200E-01
    4.157977E-02     9.376240E-03
    2.555456E-02    -6.955720E-03
    1.471495E-02     2.069460E-03
 S 23 1.00
    2.709796E+07    -7.564440E-09
    3.592856E+06    -7.055390E-08
    7.222638E+05    -4.380820E-07
    1.833976E+05    -2.115540E-06
    5.464812E+04    -8.601300E-06
    1.830913E+04    -3.064440E-05
    6.712501E+03    -9.892550E-05
    2.643719E+03    -2.917760E-04
    1.103835E+03    -7.977860E-04
    4.836777E+02    -1.985820E-03
    2.206245E+02    -4.449740E-03
    1.041117E+02    -8.390260E-03
    5.052749E+01    -1.206000E-02
    2.485247E+01    -6.568410E-03
    1.128102E+01     2.061430E-02
    5.510166E+00     6.770060E-02
    2.706914E+00     6.639570E-02
    1.122807E+00    -8.237770E-02
    5.236385E-01    -1.727150E-01
    2.355180E-01    -2.310290E-01
    4.157977E-02     5.090040E-01
    2.555456E-02     3.472180E-01
    1.471495E-02     2.809620E-01
 S 1 1.00
    2.555456E-02     1.000000E+00
 S 1 1.00
    1.471495E-02     1.000000E+00
 S 1 1.00
    8.470000E-03     1.000000E+00
 P 16 1.00
    9.533309E+03     4.212010E-05
    1.852081E+03     5.068300E-04
    5.464251E+02     3.311700E-03
    1.966947E+02     1.536840E-02
    7.964112E+01     5.457060E-02
    3.488324E+01     1.473880E-01
    1.604479E+01     2.879240E-01
    7.575632E+00     3.750810E-01
    3.672548E+00     2.545160E-01
    1.771130E+00     6.059280E-02
    8.515199E-01     2.508370E-03
    4.016017E-01     6.688870E-04
    1.851933E-01    -1.486150E-04
    5.523390E-02     4.936010E-05
    2.431085E-02    -3.513850E-05
    1.080339E-02     1.171450E-05
 P 16 1.00
    9.533309E+03    -1.280760E-05
    1.852081E+03    -1.547870E-04
    5.464251E+02    -1.010940E-03
    1.966947E+02    -4.738330E-03
    7.964112E+01    -1.703260E-02
    3.488324E+01    -4.754130E-02
    1.604479E+01    -9.560810E-02
    7.575632E+00    -1.337000E-01
    3.672548E+00    -7.425060E-02
    1.771130E+00     1.646810E-01
    8.515199E-01     4.057630E-01
    4.016017E-01     4.113600E-01
    1.851933E-01     1.734240E-01
    5.523390E-02     1.253640E-02
    2.431085E-02    -3.267140E-03
    1.080339E-02     1.039680E-03
 P 16 1.00
    9.533309E+03     1.764010E-06
    1.852081E+03     2.124880E-05
    5.464251E+02     1.392500E-04
    1.966947E+02     6.509140E-04
    7.964112E+01     2.349940E-03
    3.488324E+01     6.547470E-03
    1.604479E+01     1.326270E-02
    7.575632E+00     1.848520E-02
    3.672548E+00     1.025530E-02
    1.771130E+00    -2.652150E-02
    8.515199E-01    -6.086460E-02
    4.016017E-01    -7.474220E-02
    1.851933E-01    -4.870880E-02
    5.523390E-02     2.245720E-01
    2.431085E-02     5.839280E-01
    1.080339E-02     2.980960E-01
 P 1 1.00
    5.523390E-02     1.000000E+00
 P 1 1.00
    1.080339E-02     1.000000E+00
 P 1 1.00
    4.800000E-03     1.000000E+00
 D 6 1.00
    5.670903E+00     8.285900E-03
    1.459042E+00     2.332530E-02
    5.431827E-01     4.878080E-02
    1.346875E-01     7.349020E-02
    5.516013E-02     2.387630E-01
    1.501876E-02     8.253200E-01
 D 1 1.00
    5.516013E-02     1.000000E+00
 D 1 1.00
    1.501876E-02     1.000000E+00
 D 1 1.00
    6.010000E-03     1.000000E+00
 F 1 1.00
    8.493750E-02     1.000000E+00
 F 1 1.00
    3.398000E-02     1.000000E+00
 ****
}

molecule  {
0 2
S   -1.195489575513    1.038877718952    0.000000000000
S   -1.195226958632   -1.038727877226    0.000000000000
K    1.961727106587   -0.000122954173    0.000000000000
}
set {
basis jerome
reference uhf
g_convergence gau_verytight
e_convergence 10
scf_type pk
freeze_core true
geom_maxiter 100
}

set ccenergy {
e_convergence 10
r_convergence 10
}

e = energy('ccsd(t)')

print_out('Stephenergy {}'.format(e))

--------------------------------------------------------------------------

    Molecular point group: cs

    Geometry (in Angstrom), charge = 0, multiplicity = 2:

       Center              X                  Y                   Z               Mass
    ------------   -----------------  -----------------  -----------------  -----------------
         S           -1.195489575513     1.038877718952     0.000000000000    31.972071174400
         S           -1.195226958632    -1.038727877226     0.000000000000    31.972071174400
         K            1.961727106587    -0.000122954173     0.000000000000    38.963706486400

  Charge       = 0
  Multiplicity = 2
  Basis Set: JEROME
    Blend: AUG-CC-PV(T+D)Z + POT

    Orbital Energies [Eh]
    ---------------------

    Alpha Occupied:

       1Ap  -133.559639     2Ap   -91.906702     3Ap   -91.906686
       4Ap   -14.515895     1App  -11.545912     5Ap   -11.545830
       6Ap   -11.545756     7Ap    -8.904205     8Ap    -8.904034
       2App   -6.593191     3App   -6.593166     9Ap    -6.583082
      10Ap    -6.582715    11Ap    -6.581527    12Ap    -6.581501
      13Ap    -1.773862     4App   -0.982956    14Ap    -0.981741
      15Ap    -0.981380    16Ap    -0.944445    17Ap    -0.757655
       5App   -0.413966    18Ap    -0.402744    19Ap    -0.386107
       6App   -0.296124    20Ap    -0.260704

    Alpha Virtual:

      21Ap    -0.019897     7App    0.002172    22Ap     0.002630
      23Ap     0.005694    24Ap     0.016457     8App    0.017141
      25Ap     0.017264     9App    0.019895    26Ap     0.020822
      27Ap     0.022362    10App    0.022865    28Ap     0.028727
      29Ap     0.032855    30Ap     0.051011    11App    0.051140
      31Ap     0.055474    12App    0.058850    32Ap     0.061864
      13App    0.073586    33Ap     0.074483    34Ap     0.088214
      35Ap     0.104500    36Ap     0.108383    37Ap     0.125500
      14App    0.125672    38Ap     0.128647    39Ap     0.128774
      15App    0.129774    16App    0.133149    40Ap     0.133836
      41Ap     0.150444    17App    0.152719    42Ap     0.153540
      18App    0.167040    43Ap     0.170519    44Ap     0.174852
      19App    0.178458    20App    0.186399    45Ap     0.206676
      46Ap     0.207622    47Ap     0.221438    21App    0.233526
      48Ap     0.244616    49Ap     0.267893    50Ap     0.310658
      51Ap     0.310904    22App    0.337512    52Ap     0.350657
      53Ap     0.362728    23App    0.375763    24App    0.381775
      54Ap     0.383541    25App    0.386398    55Ap     0.391624
      56Ap     0.391651    26App    0.394176    57Ap     0.406268
      27App    0.407373    58Ap     0.428266    59Ap     0.431049
      60Ap     0.439841    28App    0.452900    29App    0.456762
      61Ap     0.462990    30App    0.466719    62Ap     0.488111
      63Ap     0.514819    64Ap     0.537757    31App    0.666905
      32App    0.703430    65Ap     0.709220    33App    0.711236
      66Ap     0.730775    67Ap     0.747031    68Ap     0.785641
      34App    0.801272    69Ap     0.814042    70Ap     0.815379
      35App    0.850828    71Ap     0.856531    72Ap     0.870911
      36App    0.892098    73Ap     0.909480    37App    0.914741
      74Ap     0.947694    75Ap     0.948310    76Ap     0.962189
      38App    1.012345    77Ap     1.018874    39App    1.048239
      78Ap     1.052845    79Ap     1.078808    40App    1.161658
      80Ap     1.196953    81Ap     1.197493    41App    1.202426
      82Ap     1.218475    42App    1.363421    83Ap     1.395057
      84Ap     1.461790    85Ap     1.677144    43App    2.031357
      86Ap     2.036036    44App    2.064560    87Ap     2.067247
      45App    2.078958    88Ap     2.096667    89Ap     2.132451
      46App    2.214711    90Ap     2.284323    47App    2.287249
      91Ap     2.291752    92Ap     2.312147    93Ap     2.372338
      48App    2.379084    94Ap     2.413135    49App    2.421744
      95Ap     2.450583    96Ap     2.473406    50App    2.485651
      51App    2.504871    52App    2.560987    97Ap     2.581290
      53App    2.584703    98Ap     2.668586    99Ap     2.685458
     100Ap     2.707285   101Ap     2.725590    54App    2.867168
     102Ap     2.898383   103Ap     3.988904   104Ap     4.954709
     105Ap     5.749997    55App    7.416938   106Ap     7.419721
     107Ap     7.436005    56App    7.436285    57App    7.438677
     108Ap     7.461686    58App    7.509499   109Ap     7.532174
     110Ap     7.596819   111Ap     7.607970

    Beta Occupied:

       1Ap  -133.559662     2Ap   -91.901112     3Ap   -91.901097
       4Ap   -14.515926     1App  -11.545947     5Ap   -11.545864
       6Ap   -11.545787     7Ap    -8.898128     8Ap    -8.897920
       9Ap    -6.580380    10Ap    -6.580000    11Ap    -6.577984
      12Ap    -6.577960     2App   -6.568718     3App   -6.568681
      13Ap    -1.774023     4App   -0.983117    14Ap    -0.981887
      15Ap    -0.980410    16Ap    -0.906132    17Ap    -0.687041
      18Ap    -0.386840    19Ap    -0.377573     5App   -0.289182
      20Ap    -0.247705

    Beta Virtual:

      21Ap    -0.019908     6App    0.002202    22Ap     0.002643
      23Ap     0.005682    24Ap     0.016451     7App    0.016970
      25Ap     0.017265     8App    0.019936    26Ap     0.020847
      27Ap     0.022412     9App    0.022958    28Ap     0.028728
      29Ap     0.032765    10App    0.046973    30Ap     0.050978
      31Ap     0.055744    11App    0.059305    32Ap     0.061831
      12App    0.064992    13App    0.073769    33Ap     0.074677
      34Ap     0.087875    35Ap     0.104283    36Ap     0.110094
      37Ap     0.125701    14App    0.125788    38Ap     0.128608
      39Ap     0.129626    15App    0.129696    40Ap     0.133881
      16App    0.134980    41Ap     0.150303    42Ap     0.153791
      17App    0.164154    18App    0.171856    43Ap     0.172084
      44Ap     0.174531    19App    0.183756    20App    0.187115
      45Ap     0.207578    46Ap     0.212177    47Ap     0.224216
      21App    0.233744    48Ap     0.245230    49Ap     0.267062
      50Ap     0.313723    51Ap     0.317271    52Ap     0.351906
      22App    0.356502    53Ap     0.366896    54Ap     0.383852
      23App    0.384533    24App    0.388632    25App    0.389650
      55Ap     0.391528    56Ap     0.395656    26App    0.396026
      27App    0.407414    57Ap     0.408624    58Ap     0.430927
      59Ap     0.433699    60Ap     0.442861    28App    0.462611
      61Ap     0.468765    29App    0.470014    30App    0.475445
      62Ap     0.488993    63Ap     0.518427    64Ap     0.538478
      31App    0.686437    65Ap     0.716971    66Ap     0.736554
      32App    0.739654    33App    0.741846    67Ap     0.749477
      68Ap     0.798427    69Ap     0.814304    34App    0.818320
      70Ap     0.831401    71Ap     0.868850    35App    0.885443
      72Ap     0.895441    73Ap     0.915083    36App    0.921822
      37App    0.925173    74Ap     0.951407    75Ap     0.960429
      76Ap     0.966015    38App    1.024765    77Ap     1.029914
      78Ap     1.054771    39App    1.058813    79Ap     1.085149
      40App    1.173834    80Ap     1.196656    81Ap     1.206944
      41App    1.208992    82Ap     1.220580    42App    1.379583
      83Ap     1.397088    84Ap     1.474679    85Ap     1.692576
      43App    2.046584    86Ap     2.050757    44App    2.079612
      87Ap     2.082272    45App    2.094887    88Ap     2.098840
      89Ap     2.134646    46App    2.236754    90Ap     2.289167
      91Ap     2.293901    47App    2.304024    92Ap     2.314935
      93Ap     2.385380    48App    2.391806    94Ap     2.425204
      49App    2.454124    95Ap     2.461914    96Ap     2.495764
      50App    2.508664    51App    2.531921    52App    2.585550
      97Ap     2.597485    53App    2.600975    98Ap     2.674117
      99Ap     2.689968   100Ap     2.711759   101Ap     2.731393
      54App    2.888271   102Ap     2.901096   103Ap     3.992409
     104Ap     4.965879   105Ap     5.760338    55App    7.423136
     106Ap     7.426044   107Ap     7.442538    56App    7.442806
      57App    7.444736   108Ap     7.462764    58App    7.515458
     109Ap     7.533054   110Ap     7.598757   111Ap     7.609856

    Final Occupation by Irrep:
             Ap   App
    DOCC [    20,    5 ]
    SOCC [     0,    1 ]

  @UHF Final Energy: -1394.31340610964662

   => Energetics <=

    Nuclear Repulsion Energy =            162.0092331203956633
    One-Electron Energy =               -2249.2346740826387759
    Two-Electron Energy =                 692.9120348525966619
    Total Energy =                      -1394.3134061096466212

  UHF NO Occupations:
  HONO-2 :   20 Ap 1.9974863
  HONO-1 :    5App 1.9868951
  HONO-0 :    6App 1.0000000
  LUNO+0 :    7App 0.0131049
  LUNO+1 :   21 Ap 0.0025137
  LUNO+2 :   22 Ap 0.0022666
  LUNO+3 :   23 Ap 0.0003116

Computation Completed

Properties will be evaluated at   0.000000,   0.000000,   0.000000 [a0]

Properties computed using the SCF density matrix

  Nuclear Dipole Moment: [e a0]
     X:    -1.8494      Y:     0.0001      Z:     0.0000

  Electronic Dipole Moment: [e a0]
     X:     6.6349      Y:    -0.0002      Z:     0.0000

  Dipole Moment: [e a0]
     X:     4.7855      Y:    -0.0001      Z:     0.0000     Total:     4.7855

  Dipole Moment: [D]
     X:    12.1636      Y:    -0.0002      Z:     0.0000     Total:    12.1636

*** tstop() called on d3-2.compute.lan at Fri Mar  5 16:41:01 2021
Module time:
	user time   =     261.30 seconds =       4.36 minutes
	system time =       3.41 seconds =       0.06 minutes
	total time  =         68 seconds =       1.13 minutes
Total time:
	user time   =     261.30 seconds =       4.36 minutes
	system time =       3.41 seconds =       0.06 minutes
	total time  =         68 seconds =       1.13 minutes
 MINTS: Wrapper to libmints.
   by Justin Turney

   Calculation information:
      Number of threads:                12
      Number of atoms:                   3
      Number of AO shells:              53
      Number of SO shells:              53
      Number of primitives:            287
      Number of atomic orbitals:       199
      Number of basis functions:       169

      Number of irreps:                  2
      Integral cutoff                 0.00e+00
      Number of functions per irrep: [ 111   58 ]

 OEINTS: Overlap, kinetic, potential, dipole, and quadrupole integrals
         stored in file 35.

      Computing two-electron integrals...done
      Computed 50997649 non-zero two-electron integrals.
        Stored in file 33.

*** tstart() called on d3-2.compute.lan
*** at Fri Mar  5 16:43:10 2021

	Wfn Parameters:
	--------------------
	Wavefunction         = CCSD_T
	Number of irreps     = 2
	Number of MOs        = 169
	Number of active MOs = 150
	AO-Basis             = NONE
	Semicanonical        = false
	Reference            = UHF
	Print Level          = 1

	IRREP	# MOs	# FZDC	# DOCC	# SOCC	# VIRT	# FZVR
	-----	-----	------	------	------	------	------
	 Ap	   111	    15	    5	    0	    91	    0
	 App	   58	    4	    1	    1	    52	    0
	Transforming integrals...
	IWL integrals will be deleted.
	(OO|OO)...
	Presorting SO-basis two-electron integrals.
	Sorting File: SO Ints (nn|nn) nbuckets = 1
	Transforming the one-electron integrals and constructing Fock matrices
	Starting AA/AB first half-transformation.
	Sorting AA/AB half-transformed integrals.
	Starting BB first half-transformation.
	Sorting BB half-transformed integrals.
	First half integral transformation complete.
	Starting AA second half-transformation.
	Starting AB second half-transformation.
	Starting BB second half-transformation.
	Two-electron integral transformation complete.
	(OO|OV)...
	Starting AA second half-transformation.
	Starting AB second half-transformation.
	Starting BB second half-transformation.
	Two-electron integral transformation complete.
	(OO|VV)...
	Starting AA second half-transformation.
	Starting AB second half-transformation.
	Starting BB second half-transformation.
	Two-electron integral transformation complete.
	(OV|OO)...
	Starting AA/AB first half-transformation.
	Sorting AA/AB half-transformed integrals.
	Starting BB first half-transformation.
	Sorting BB half-transformed integrals.
	First half integral transformation complete.
	Starting AA second half-transformation.
	Starting AB second half-transformation.
	Starting BB second half-transformation.
	Two-electron integral transformation complete.
	(OV|OV)...
	Starting AA second half-transformation.
	Starting AB second half-transformation.
	Starting BB second half-transformation.
	Two-electron integral transformation complete.
	(OV|VV)...
	Starting AA second half-transformation.
	Starting AB second half-transformation.
	Starting BB second half-transformation.
	Two-electron integral transformation complete.
	(VV|OO)...
	Starting AA/AB first half-transformation.
	Sorting AA/AB half-transformed integrals.
	Starting BB first half-transformation.
	Sorting BB half-transformed integrals.
	First half integral transformation complete.
	Starting AA second half-transformation.
	Starting AB second half-transformation.
	Starting BB second half-transformation.
	Two-electron integral transformation complete.
	(VV|OV)...
	Starting AA second half-transformation.
	Starting AB second half-transformation.
	Starting BB second half-transformation.
	Two-electron integral transformation complete.
	(VV|VV)...
	Starting AA second half-transformation.
	Starting AB second half-transformation.
	Starting BB second half-transformation.
	Two-electron integral transformation complete.
	Frozen core energy     =  -1525.20863257337760

	Size of irrep 0 of <AB|CD> integrals:     29.387 (MW) /    235.098 (MB)
	Size of irrep 1 of <AB|CD> integrals:     22.392 (MW) /    179.135 (MB)
	Total:                                    51.779 (MW) /    414.233 (MB)

	Size of irrep 0 of <ab|cd> integrals:     29.954 (MW) /    239.630 (MB)
	Size of irrep 1 of <ab|cd> integrals:     23.261 (MW) /    186.091 (MB)
	Total:                                    53.215 (MW) /    425.720 (MB)

	Size of irrep 0 of <Ab|Cd> integrals:    121.815 (MW) /    974.523 (MB)
	Size of irrep 1 of <Ab|Cd> integrals:     91.298 (MW) /    730.384 (MB)
	Total:                                   213.113 (MW) /   1704.907 (MB)

	Size of irrep 0 of <IA|BC> integrals:      6.141 (MW) /     49.125 (MB)
	Size of irrep 1 of <IA|BC> integrals:      4.183 (MW) /     33.465 (MB)
	Total:                                    10.324 (MW) /     82.590 (MB)

	Size of irrep 0 of <ia|bc> integrals:      5.634 (MW) /     45.070 (MB)
	Size of irrep 1 of <ia|bc> integrals:      3.434 (MW) /     27.472 (MB)
	Total:                                     9.068 (MW) /     72.542 (MB)

	Size of irrep 0 of <Ia|Bc> integrals:      6.192 (MW) /     49.534 (MB)
	Size of irrep 1 of <Ia|Bc> integrals:      4.271 (MW) /     34.169 (MB)
	Total:                                    10.463 (MW) /     83.703 (MB)

	Size of irrep 0 of <iA|bC> integrals:      5.596 (MW) /     44.766 (MB)
	Size of irrep 1 of <iA|bC> integrals:      3.354 (MW) /     26.830 (MB)
	Total:                                     8.950 (MW) /     71.597 (MB)

	Size of irrep 0 of tIjAb amplitudes:       0.298 (MW) /      2.384 (MB)
	Size of irrep 1 of tIjAb amplitudes:       0.143 (MW) /      1.147 (MB)
	Total:                                     0.441 (MW) /      3.531 (MB)

	Nuclear Rep. energy          =    162.00923312039566
	SCF energy                   =  -1394.31340610964662
	One-electron energy          =    -55.87179314130029
	Two-electron (AA) energy     =      6.08191002174356
	Two-electron (BB) energy     =      4.34676025933909
	Two-electron (AB) energy     =     14.32911620352159
	Two-electron energy          =     24.75778648460425
	Reference energy             =  -1394.31340610967800

*** tstop() called on d3-2.compute.lan at Fri Mar  5 16:46:03 2021
Module time:
	user time   =     363.86 seconds =       6.06 minutes
	system time =      31.42 seconds =       0.52 minutes
	total time  =        173 seconds =       2.88 minutes
Total time:
	user time   =     756.09 seconds =      12.60 minutes
	system time =      36.69 seconds =       0.61 minutes
	total time  =        370 seconds =       6.17 minutes
            **************************
            *                        *
            *        CCENERGY        *
            *                        *
            **************************

    Nuclear Rep. energy (wfn)     =  162.009233120395663
    SCF energy          (wfn)     = -1394.313406109646621
    Reference energy    (file100) = -1394.313406109677999

    Input parameters:
    -----------------
    Wave function   =     CCSD_T
    Reference wfn   =     UHF
    Brueckner       =     No
    Memory (Mbytes) =     46000.0
    Maxiter         =     50
    R_Convergence   =     1.0e-10
    E_Convergence   =     1.0e-10
    Restart         =     Yes
    DIIS            =     Yes
    AO Basis        =     NONE
    ABCD            =     NEW
    Cache Level     =     2
    Cache Type      =     LRU
    Print Level     =     1
    Num. of threads =     12
    # Amps to Print =     10
    Print MP2 Amps? =     No
    Analyze T2 Amps =     No
    Print Pair Ener =     No
    Local CC        =     No
    SCS-MP2         =     False
    SCSN-MP2        =     False
    SCS-CCSD        =     False

MP2 correlation energy -0.3450922391977756
                Solving CC Amplitude Equations
                ------------------------------
  Iter             Energy              RMS        T1Diag      D1Diag    New D1Diag    D2Diag
  ----     ---------------------    ---------   ----------  ----------  ----------   --------
     0        -0.345092239197776    0.000e+00    0.000000    0.000000    0.000000    0.000000
     1        -0.358657889149186    8.248e-02    0.015926    0.000000    0.000000    0.000000
     2        -0.369323155119635    2.600e-02    0.018550    0.000000    0.000000    0.000000
     3        -0.371512231718556    1.236e-02    0.022089    0.000000    0.000000    0.000000
     4        -0.371396697634835    3.435e-03    0.023167    0.000000    0.000000    0.000000
     5        -0.371361813631867    1.414e-03    0.023449    0.000000    0.000000    0.000000
     6        -0.371355425672781    6.115e-04    0.023536    0.000000    0.000000    0.000000
     7        -0.371352161982311    3.089e-04    0.023564    0.000000    0.000000    0.000000
     8        -0.371353298865401    1.661e-04    0.023569    0.000000    0.000000    0.000000
     9        -0.371356954385073    9.477e-05    0.023570    0.000000    0.000000    0.000000
    10        -0.371355529141182    5.130e-05    0.023572    0.000000    0.000000    0.000000
    11        -0.371355354384453    2.258e-05    0.023571    0.000000    0.000000    0.000000
    12        -0.371354979511987    1.097e-05    0.023572    0.000000    0.000000    0.000000
    13        -0.371354798183620    5.465e-06    0.023572    0.000000    0.000000    0.000000
    14        -0.371354793724266    2.993e-06    0.023572    0.000000    0.000000    0.000000
    15        -0.371354798033308    1.874e-06    0.023571    0.000000    0.000000    0.000000
    16        -0.371354798023810    1.052e-06    0.023571    0.000000    0.000000    0.000000

      * MP2 total energy                      = -1394.658498348875810
      * CCSD total energy                     = -1394.684760912413822
      * CCSD(T) total energy                     = -1394.706862582642088
*** Psi4 exiting successfully. Buy a developer a beer!
