                               Psi4 1.3.2 release

  ==> Input File <==

--------------------------------------------------------------------------
memory 46 GB

basis jerome {
assign pot
assign S aug-cc-pV(T+d)Z

[pot]
spherical
****
 K  0
 S 23 1.00
    2.709796E+07     4.136110E-07
    3.592856E+06     3.860330E-06
    7.222638E+05     2.394640E-05
    1.833976E+05     1.157540E-04
    5.464812E+04     4.697010E-04
    1.830913E+04     1.673720E-03
    6.712501E+03     5.370450E-03
    2.643719E+03     1.572510E-02
    1.103835E+03     4.193360E-02
    4.836777E+02     9.987620E-02
    2.206245E+02     2.019680E-01
    1.041117E+02     3.146270E-01
    5.052749E+01     3.107540E-01
    2.485247E+01     1.421920E-01
    1.128102E+01     1.658490E-02
    5.510166E+00    -2.759760E-04
    2.706914E+00     5.158310E-04
    1.122807E+00    -2.268950E-04
    5.236385E-01     6.652980E-05
    2.355180E-01    -3.685150E-05
    4.157977E-02     1.925250E-05
    2.555456E-02    -2.108420E-05
    1.471495E-02     7.044600E-06
 S 23 1.00
    2.709796E+07    -1.188290E-07
    3.592856E+06    -1.108550E-06
    7.222638E+05    -6.881230E-06
    1.833976E+05    -3.324150E-05
    5.464812E+04    -1.350850E-04
    1.830913E+04    -4.814570E-04
    6.712501E+03    -1.552620E-03
    2.643719E+03    -4.578330E-03
    1.103835E+03    -1.247930E-02
    4.836777E+02    -3.094650E-02
    2.206245E+02    -6.855530E-02
    1.041117E+02    -1.268300E-01
    5.052749E+01    -1.745020E-01
    2.485247E+01    -9.089560E-02
    1.128102E+01     2.506960E-01
    5.510166E+00     5.589630E-01
    2.706914E+00     3.284370E-01
    1.122807E+00     3.392170E-02
    5.236385E-01    -2.100280E-03
    2.355180E-01     1.383960E-03
    4.157977E-02    -5.315630E-04
    2.555456E-02     5.770310E-04
    1.471495E-02    -1.931440E-04
 S 23 1.00
    2.709796E+07     3.917470E-08
    3.592856E+06     3.650640E-07
    7.222638E+05     2.269460E-06
    1.833976E+05     1.094290E-05
    5.464812E+04     4.457360E-05
    1.830913E+04     1.584480E-04
    6.712501E+03     5.128440E-04
    2.643719E+03     1.507690E-03
    1.103835E+03     4.136940E-03
    4.836777E+02     1.024690E-02
    2.206245E+02     2.306520E-02
    1.041117E+02     4.308900E-02
    5.052749E+01     6.238120E-02
    2.485247E+01     3.270420E-02
    1.128102E+01    -1.021980E-01
    5.510166E+00    -3.317970E-01
    2.706914E+00    -3.030100E-01
    1.122807E+00     3.098410E-01
    5.236385E-01     6.732700E-01
    2.355180E-01     2.812200E-01
    4.157977E-02     9.376240E-03
    2.555456E-02    -6.955720E-03
    1.471495E-02     2.069460E-03
 S 23 1.00
    2.709796E+07    -7.564440E-09
    3.592856E+06    -7.055390E-08
    7.222638E+05    -4.380820E-07
    1.833976E+05    -2.115540E-06
    5.464812E+04    -8.601300E-06
    1.830913E+04    -3.064440E-05
    6.712501E+03    -9.892550E-05
    2.643719E+03    -2.917760E-04
    1.103835E+03    -7.977860E-04
    4.836777E+02    -1.985820E-03
    2.206245E+02    -4.449740E-03
    1.041117E+02    -8.390260E-03
    5.052749E+01    -1.206000E-02
    2.485247E+01    -6.568410E-03
    1.128102E+01     2.061430E-02
    5.510166E+00     6.770060E-02
    2.706914E+00     6.639570E-02
    1.122807E+00    -8.237770E-02
    5.236385E-01    -1.727150E-01
    2.355180E-01    -2.310290E-01
    4.157977E-02     5.090040E-01
    2.555456E-02     3.472180E-01
    1.471495E-02     2.809620E-01
 S 1 1.00
    2.555456E-02     1.000000E+00
 S 1 1.00
    1.471495E-02     1.000000E+00
 S 1 1.00
    8.470000E-03     1.000000E+00
 P 16 1.00
    9.533309E+03     4.212010E-05
    1.852081E+03     5.068300E-04
    5.464251E+02     3.311700E-03
    1.966947E+02     1.536840E-02
    7.964112E+01     5.457060E-02
    3.488324E+01     1.473880E-01
    1.604479E+01     2.879240E-01
    7.575632E+00     3.750810E-01
    3.672548E+00     2.545160E-01
    1.771130E+00     6.059280E-02
    8.515199E-01     2.508370E-03
    4.016017E-01     6.688870E-04
    1.851933E-01    -1.486150E-04
    5.523390E-02     4.936010E-05
    2.431085E-02    -3.513850E-05
    1.080339E-02     1.171450E-05
 P 16 1.00
    9.533309E+03    -1.280760E-05
    1.852081E+03    -1.547870E-04
    5.464251E+02    -1.010940E-03
    1.966947E+02    -4.738330E-03
    7.964112E+01    -1.703260E-02
    3.488324E+01    -4.754130E-02
    1.604479E+01    -9.560810E-02
    7.575632E+00    -1.337000E-01
    3.672548E+00    -7.425060E-02
    1.771130E+00     1.646810E-01
    8.515199E-01     4.057630E-01
    4.016017E-01     4.113600E-01
    1.851933E-01     1.734240E-01
    5.523390E-02     1.253640E-02
    2.431085E-02    -3.267140E-03
    1.080339E-02     1.039680E-03
 P 16 1.00
    9.533309E+03     1.764010E-06
    1.852081E+03     2.124880E-05
    5.464251E+02     1.392500E-04
    1.966947E+02     6.509140E-04
    7.964112E+01     2.349940E-03
    3.488324E+01     6.547470E-03
    1.604479E+01     1.326270E-02
    7.575632E+00     1.848520E-02
    3.672548E+00     1.025530E-02
    1.771130E+00    -2.652150E-02
    8.515199E-01    -6.086460E-02
    4.016017E-01    -7.474220E-02
    1.851933E-01    -4.870880E-02
    5.523390E-02     2.245720E-01
    2.431085E-02     5.839280E-01
    1.080339E-02     2.980960E-01
 P 1 1.00
    5.523390E-02     1.000000E+00
 P 1 1.00
    1.080339E-02     1.000000E+00
 P 1 1.00
    4.800000E-03     1.000000E+00
 D 6 1.00
    5.670903E+00     8.285900E-03
    1.459042E+00     2.332530E-02
    5.431827E-01     4.878080E-02
    1.346875E-01     7.349020E-02
    5.516013E-02     2.387630E-01
    1.501876E-02     8.253200E-01
 D 1 1.00
    5.516013E-02     1.000000E+00
 D 1 1.00
    1.501876E-02     1.000000E+00
 D 1 1.00
    6.010000E-03     1.000000E+00
 F 1 1.00
    8.493750E-02     1.000000E+00
 F 1 1.00
    3.398000E-02     1.000000E+00
 ****
}

molecule  {
0 2
S    0.000000000000    0.000000000000    0.485999761693
S    0.000000000000    0.000000000000    2.501418129589
K    0.000000000000    0.000000000000   -2.451356558727
}
set {
basis jerome
reference uhf
g_convergence gau_verytight
e_convergence 10
scf_type pk
freeze_core true
geom_maxiter 100
}

set ccenergy {
e_convergence 10
r_convergence 10
}

e = energy('ccsd(t)')

print_out('Stephenergy {}'.format(e))

--------------------------------------------------------------------------

    Molecular point group: c2v

    Geometry (in Angstrom), charge = 0, multiplicity = 2:

       Center              X                  Y                   Z               Mass
    ------------   -----------------  -----------------  -----------------  -----------------
         S            0.000000000000     0.000000000000     0.485999761693    31.972071174400
         S            0.000000000000     0.000000000000     2.501418129589    31.972071174400
         K            0.000000000000     0.000000000000    -2.451356558727    38.963706486400

  Charge       = 0
  Multiplicity = 2
  Basis Set: JEROME
    Blend: AUG-CC-PV(T+D)Z + POT

    Orbital Energies [Eh]
    ---------------------

    Alpha Occupied:

       1A1  -133.573124     2A1   -91.907736     3A1   -91.876569
       4A1   -14.529580     1B2   -11.559587     1B1   -11.559526
       5A1   -11.559438     6A1    -8.905770     7A1    -8.876376
       2B2    -6.598249     8A1    -6.583920     2B1    -6.581931
       3B2    -6.561241     9A1    -6.556724     3B1    -6.555490
      10A1    -1.788139     4B2    -0.996589    11A1    -0.996554
       4B1    -0.996084    12A1    -0.950476    13A1    -0.740356
       5B2    -0.413012    14A1    -0.410118     5B1    -0.374370
       6B2    -0.276601     6B1    -0.239259

    Alpha Virtual:

      15A1    -0.025363     7B2     0.000213     7B1     0.000464
      16A1     0.003572    17A1     0.014385     1A2     0.016333
      18A1     0.016348     8B2     0.017612     8B1     0.017935
       9B2     0.022314     9B1     0.022784    19A1     0.026568
      20A1     0.030653     2A2     0.048228    21A1     0.048233
      10B2     0.057905    10B1     0.058920    22A1     0.061363
      11B2     0.069033    11B1     0.069754    23A1     0.080137
      24A1     0.091671    25A1     0.107441    12B2     0.116989
      12B1     0.118442    13B2     0.122994    13B1     0.122995
      26A1     0.128571     3A2     0.128616    27A1     0.131755
       4A2     0.146419    28A1     0.146439    14B2     0.157302
      14B1     0.161983    29A1     0.167961    15B2     0.183111
      15B1     0.187083    30A1     0.197582    31A1     0.221370
      16B2     0.221547    16B1     0.223531    17B2     0.231207
      17B1     0.234750    32A1     0.277386    33A1     0.306757
      34A1     0.315075     5A2     0.317861    35A1     0.323760
      18B2     0.358544    18B1     0.365097     6A2     0.367679
      36A1     0.367847    19B2     0.376010    19B1     0.376011
       7A2     0.378946    37A1     0.378946    20B2     0.396727
      20B1     0.399999    38A1     0.400241    39A1     0.438902
       8A2     0.452321    40A1     0.452751    41A1     0.455633
      21B2     0.455653    21B1     0.465914    42A1     0.533965
      22B2     0.539129    22B1     0.551648    23B2     0.649910
      23B1     0.666501    43A1     0.717964    24B2     0.733230
      24B1     0.746888    44A1     0.755065     9A2     0.758489
      45A1     0.775227    25B2     0.840964    10A2     0.855078
      46A1     0.855094    25B1     0.861755    47A1     0.871010
      26B2     0.874872    26B1     0.874887    27B2     0.938327
      27B1     0.952538    48A1     0.965436    11A2     0.968561
      49A1     0.969563    28B2     1.017482    28B1     1.017493
      50A1     1.041517    51A1     1.176136    29B2     1.188459
      29B1     1.203931    52A1     1.220377    12A2     1.221536
      53A1     1.269127    30B2     1.380657    30B1     1.397593
      54A1     1.521348    55A1     1.724435    13A2     2.001148
      56A1     2.001863    57A1     2.090005    14A2     2.090035
      31B2     2.136196    58A1     2.136981    31B1     2.155483
      32B2     2.226909    32B1     2.248913    33B2     2.308472
      59A1     2.309155    33B1     2.328362    15A2     2.387144
      60A1     2.387675    34B2     2.411168    34B1     2.411306
      35B2     2.477676    35B1     2.477993    36B2     2.478406
      36B1     2.502225    61A1     2.503917    37B2     2.604655
      62A1     2.612752    16A2     2.613483    37B1     2.624220
      63A1     2.754808    64A1     2.864535    38B2     2.928462
      38B1     2.950175    65A1     4.064008    66A1     5.003995
      67A1     5.793182    68A1     7.396426    17A2     7.396588
      69A1     7.450347    18A2     7.450365    39B2     7.476947
      39B1     7.492888    40B2     7.553449    40B1     7.561604
      70A1     7.616672    71A1     7.668260

    Beta Occupied:

       1A1  -133.573136     2A1   -91.900087     3A1   -91.874033
       4A1   -14.529598     1B2   -11.559547     1B1   -11.559541
       5A1   -11.559487     6A1    -8.897429     7A1    -8.873607
       8A1    -6.579637     2B1    -6.577338     2B2    -6.564642
       9A1    -6.556148     3B1    -6.553870     3B2    -6.549568
      10A1    -1.788169     4B2    -0.996323     4B1    -0.996149
      11A1    -0.996040    12A1    -0.912242    13A1    -0.675720
      14A1    -0.394066     5B1    -0.365548     5B2    -0.298185
       6B1    -0.227385

    Beta Virtual:

      15A1    -0.025252     6B2     0.000164     7B1     0.000466
      16A1     0.003625    17A1     0.014386     1A2     0.016334
      18A1     0.016348     7B2     0.017447     8B1     0.017938
       8B2     0.022353     9B1     0.022784    19A1     0.026709
      20A1     0.030688     2A2     0.048256    21A1     0.048259
       9B2     0.056993    10B1     0.058936    22A1     0.061368
      10B2     0.065368    11B1     0.069763    11B2     0.079547
      23A1     0.080063    24A1     0.092645    25A1     0.108610
      12B1     0.118560    12B2     0.122865    13B1     0.123014
      13B2     0.123080    26A1     0.128644     3A2     0.128691
      27A1     0.131898     4A2     0.146818    28A1     0.146825
      14B1     0.162174    14B2     0.162815    29A1     0.167784
      15B1     0.187607    15B2     0.197352    30A1     0.206135
      16B2     0.222720    31A1     0.223043    16B1     0.223521
      17B1     0.234440    17B2     0.238341    32A1     0.277425
      33A1     0.309807    34A1     0.323607     5A2     0.327371
      35A1     0.328008    18B1     0.364742    18B2     0.367173
       6A2     0.372583    36A1     0.372645    19B1     0.376149
      19B2     0.376149     7A2     0.379338    37A1     0.379343
      20B1     0.399772    38A1     0.400738    20B2     0.401423
      39A1     0.443920    40A1     0.457203     8A2     0.460452
      41A1     0.460933    21B1     0.466702    21B2     0.474663
      42A1     0.540287    22B1     0.552728    22B2     0.565124
      23B1     0.668695    23B2     0.672167    43A1     0.722900
      24B1     0.749179    24B2     0.755851    44A1     0.775546
      45A1     0.789404     9A2     0.789759    25B1     0.863198
      25B2     0.873177    46A1     0.878286    10A2     0.880628
      26B1     0.880808    26B2     0.880989    47A1     0.881167
      27B1     0.952993    27B2     0.959580    48A1     0.972431
      11A2     0.979251    49A1     0.979471    28B1     1.027112
      28B2     1.027118    50A1     1.047031    51A1     1.181795
      29B2     1.201422    29B1     1.204337    52A1     1.228448
      12A2     1.228815    53A1     1.273145    30B2     1.397256
      30B1     1.399607    54A1     1.534978    55A1     1.735730
      56A1     2.020510    13A2     2.020549    57A1     2.101826
      14A2     2.101931    58A1     2.138951    31B2     2.149761
      31B1     2.156753    32B2     2.249802    32B1     2.251206
      59A1     2.314076    33B2     2.325607    33B1     2.330424
      15A2     2.399624    60A1     2.399668    34B1     2.434963
      34B2     2.434967    35B1     2.496038    35B2     2.496041
      36B1     2.506678    61A1     2.507891    36B2     2.512959
      62A1     2.626292    16A2     2.626414    37B2     2.626573
      37B1     2.627262    63A1     2.761005    64A1     2.869175
      38B2     2.948309    38B1     2.952220    65A1     4.067158
      66A1     5.014216    67A1     5.802389    68A1     7.404640
      17A2     7.404716    69A1     7.454235    18A2     7.454248
      39B2     7.484498    39B1     7.493965    40B2     7.556970
      40B1     7.561990    70A1     7.619112    71A1     7.669714

    Final Occupation by Irrep:
             A1    A2    B1    B2
    DOCC [    14,    0,    6,    5 ]
    SOCC [     0,    0,    0,    1 ]

  @UHF Final Energy: -1394.29576222004334

   => Energetics <=

    Nuclear Repulsion Energy =            154.4641463272166391
    One-Electron Energy =               -2234.1955059014635481
    Two-Electron Energy =                 685.4355973542034235
    Total Energy =                      -1394.2957622200437982

  UHF NO Occupations:
  HONO-2 :   14 A1 1.9957364
  HONO-1 :    5 B2 1.9922316
  HONO-0 :    6 B2 1.0000000
  LUNO+0 :    7 B2 0.0077684
  LUNO+1 :   15 A1 0.0042636
  LUNO+2 :   16 A1 0.0009117
  LUNO+3 :    7 B1 0.0003815

Computation Completed

Properties will be evaluated at   0.000000,   0.000000,   0.000000 [a0]

Properties computed using the SCF density matrix

  Nuclear Dipole Moment: [e a0]
     X:     0.0000      Y:     0.0000      Z:     2.3110

  Electronic Dipole Moment: [e a0]
     X:     0.0000      Y:     0.0000      Z:    -7.8491

  Dipole Moment: [e a0]
     X:     0.0000      Y:     0.0000      Z:    -5.5381     Total:     5.5381

  Dipole Moment: [D]
     X:     0.0000      Y:     0.0000      Z:   -14.0765     Total:    14.0765

*** tstop() called on c2-1.compute.lan at Fri Mar  5 16:07:56 2021
Module time:
	user time   =     249.64 seconds =       4.16 minutes
	system time =       3.82 seconds =       0.06 minutes
	total time  =         71 seconds =       1.18 minutes
Total time:
	user time   =     249.64 seconds =       4.16 minutes
	system time =       3.82 seconds =       0.06 minutes
	total time  =         71 seconds =       1.18 minutes
 MINTS: Wrapper to libmints.
   by Justin Turney

   Calculation information:
      Number of threads:                12
      Number of atoms:                   3
      Number of AO shells:              53
      Number of SO shells:              53
      Number of primitives:            287
      Number of atomic orbitals:       199
      Number of basis functions:       169

      Number of irreps:                  4
      Integral cutoff                 0.00e+00
      Number of functions per irrep: [  71   18   40   40 ]

 OEINTS: Overlap, kinetic, potential, dipole, and quadrupole integrals
         stored in file 35.

      Computing two-electron integrals...done
      Computed 25856826 non-zero two-electron integrals.
        Stored in file 33.

*** tstart() called on c2-1.compute.lan
*** at Fri Mar  5 16:09:40 2021

	Wfn Parameters:
	--------------------
	Wavefunction         = CCSD_T
	Number of irreps     = 4
	Number of MOs        = 169
	Number of active MOs = 150
	AO-Basis             = NONE
	Semicanonical        = false
	Reference            = UHF
	Print Level          = 1

	IRREP	# MOs	# FZDC	# DOCC	# SOCC	# VIRT	# FZVR
	-----	-----	------	------	------	------	------
	 A1	   71	    11	    3	    0	    57	    0
	 A2	   18	    0	    0	    0	    18	    0
	 B1	   40	    4	    2	    0	    34	    0
	 B2	   40	    4	    1	    1	    34	    0
	Transforming integrals...
	IWL integrals will be deleted.
	(OO|OO)...
	Presorting SO-basis two-electron integrals.
	Sorting File: SO Ints (nn|nn) nbuckets = 1
	Transforming the one-electron integrals and constructing Fock matrices
	Starting AA/AB first half-transformation.
	Sorting AA/AB half-transformed integrals.
	Starting BB first half-transformation.
	Sorting BB half-transformed integrals.
	First half integral transformation complete.
	Starting AA second half-transformation.
	Starting AB second half-transformation.
	Starting BB second half-transformation.
	Two-electron integral transformation complete.
	(OO|OV)...
	Starting AA second half-transformation.
	Starting AB second half-transformation.
	Starting BB second half-transformation.
	Two-electron integral transformation complete.
	(OO|VV)...
	Starting AA second half-transformation.
	Starting AB second half-transformation.
	Starting BB second half-transformation.
	Two-electron integral transformation complete.
	(OV|OO)...
	Starting AA/AB first half-transformation.
	Sorting AA/AB half-transformed integrals.
	Starting BB first half-transformation.
	Sorting BB half-transformed integrals.
	First half integral transformation complete.
	Starting AA second half-transformation.
	Starting AB second half-transformation.
	Starting BB second half-transformation.
	Two-electron integral transformation complete.
	(OV|OV)...
	Starting AA second half-transformation.
	Starting AB second half-transformation.
	Starting BB second half-transformation.
	Two-electron integral transformation complete.
	(OV|VV)...
	Starting AA second half-transformation.
	Starting AB second half-transformation.
	Starting BB second half-transformation.
	Two-electron integral transformation complete.
	(VV|OO)...
	Starting AA/AB first half-transformation.
	Sorting AA/AB half-transformed integrals.
	Starting BB first half-transformation.
	Sorting BB half-transformed integrals.
	First half integral transformation complete.
	Starting AA second half-transformation.
	Starting AB second half-transformation.
	Starting BB second half-transformation.
	Two-electron integral transformation complete.
	(VV|OV)...
	Starting AA second half-transformation.
	Starting AB second half-transformation.
	Starting BB second half-transformation.
	Two-electron integral transformation complete.
	(VV|VV)...
	Starting AA second half-transformation.
	Starting AB second half-transformation.
	Starting BB second half-transformation.
	Two-electron integral transformation complete.
	Frozen core energy     =  -1517.49433369742701

	Size of irrep 0 of <AB|CD> integrals:      8.243 (MW) /     65.941 (MB)
	Size of irrep 1 of <AB|CD> integrals:      4.761 (MW) /     38.089 (MB)
	Size of irrep 2 of <AB|CD> integrals:      6.503 (MW) /     52.020 (MB)
	Size of irrep 3 of <AB|CD> integrals:      6.503 (MW) /     52.020 (MB)
	Total:                                    26.009 (MW) /    208.070 (MB)

	Size of irrep 0 of <ab|cd> integrals:      8.439 (MW) /     67.512 (MB)
	Size of irrep 1 of <ab|cd> integrals:      4.911 (MW) /     39.285 (MB)
	Size of irrep 2 of <ab|cd> integrals:      6.595 (MW) /     52.757 (MB)
	Size of irrep 3 of <ab|cd> integrals:      6.796 (MW) /     54.372 (MB)
	Total:                                    26.741 (MW) /    213.926 (MB)

	Size of irrep 0 of <Ab|Cd> integrals:     35.035 (MW) /    280.276 (MB)
	Size of irrep 1 of <Ab|Cd> integrals:     19.342 (MW) /    154.739 (MB)
	Size of irrep 2 of <Ab|Cd> integrals:     26.194 (MW) /    209.551 (MB)
	Size of irrep 3 of <Ab|Cd> integrals:     26.595 (MW) /    212.757 (MB)
	Total:                                   107.166 (MW) /    857.324 (MB)

	Size of irrep 0 of <IA|BC> integrals:      1.807 (MW) /     14.454 (MB)
	Size of irrep 1 of <IA|BC> integrals:      0.829 (MW) /      6.633 (MB)
	Size of irrep 2 of <IA|BC> integrals:      1.285 (MW) /     10.282 (MB)
	Size of irrep 3 of <IA|BC> integrals:      1.285 (MW) /     10.282 (MB)
	Total:                                     5.206 (MW) /     41.650 (MB)

	Size of irrep 0 of <ia|bc> integrals:      1.631 (MW) /     13.051 (MB)
	Size of irrep 1 of <ia|bc> integrals:      0.700 (MW) /      5.602 (MB)
	Size of irrep 2 of <ia|bc> integrals:      1.202 (MW) /      9.615 (MB)
	Size of irrep 3 of <ia|bc> integrals:      1.032 (MW) /      8.259 (MB)
	Total:                                     4.566 (MW) /     36.527 (MB)

	Size of irrep 0 of <Ia|Bc> integrals:      1.829 (MW) /     14.632 (MB)
	Size of irrep 1 of <Ia|Bc> integrals:      0.844 (MW) /      6.755 (MB)
	Size of irrep 2 of <Ia|Bc> integrals:      1.290 (MW) /     10.318 (MB)
	Size of irrep 3 of <Ia|Bc> integrals:      1.315 (MW) /     10.520 (MB)
	Total:                                     5.278 (MW) /     42.225 (MB)

	Size of irrep 0 of <iA|bC> integrals:      1.616 (MW) /     12.927 (MB)
	Size of irrep 1 of <iA|bC> integrals:      0.686 (MW) /      5.489 (MB)
	Size of irrep 2 of <iA|bC> integrals:      1.198 (MW) /      9.581 (MB)
	Size of irrep 3 of <iA|bC> integrals:      1.006 (MW) /      8.045 (MB)
	Total:                                     4.505 (MW) /     36.042 (MB)

	Size of irrep 0 of tIjAb amplitudes:       0.089 (MW) /      0.710 (MB)
	Size of irrep 1 of tIjAb amplitudes:       0.026 (MW) /      0.211 (MB)
	Size of irrep 2 of tIjAb amplitudes:       0.061 (MW) /      0.491 (MB)
	Size of irrep 3 of tIjAb amplitudes:       0.046 (MW) /      0.371 (MB)
	Total:                                     0.223 (MW) /      1.784 (MB)

	Nuclear Rep. energy          =    154.46414632721664
	SCF energy                   =  -1394.29576222004334
	One-electron energy          =    -56.25381261917568
	Two-electron (AA) energy     =      6.13704162237419
	Two-electron (BB) energy     =      4.38831907620881
	Two-electron (AB) energy     =     14.46287707074477
	Two-electron energy          =     24.98823776932777
	Reference energy             =  -1394.29576222005835

*** tstop() called on c2-1.compute.lan at Fri Mar  5 16:10:13 2021
Module time:
	user time   =     138.58 seconds =       2.31 minutes
	system time =      18.93 seconds =       0.32 minutes
	total time  =         33 seconds =       0.55 minutes
Total time:
	user time   =     493.98 seconds =       8.23 minutes
	system time =      23.71 seconds =       0.40 minutes
	total time  =        208 seconds =       3.47 minutes
            **************************
            *                        *
            *        CCENERGY        *
            *                        *
            **************************

    Nuclear Rep. energy (wfn)     =  154.464146327216639
    SCF energy          (wfn)     = -1394.295762220043343
    Reference energy    (file100) = -1394.295762220058350

    Input parameters:
    -----------------
    Wave function   =     CCSD_T
    Reference wfn   =     UHF
    Brueckner       =     No
    Memory (Mbytes) =     46000.0
    Maxiter         =     50
    R_Convergence   =     1.0e-10
    E_Convergence   =     1.0e-10
    Restart         =     Yes
    DIIS            =     Yes
    AO Basis        =     NONE
    ABCD            =     NEW
    Cache Level     =     2
    Cache Type      =     LRU
    Print Level     =     1
    Num. of threads =     12
    # Amps to Print =     10
    Print MP2 Amps? =     No
    Analyze T2 Amps =     No
    Print Pair Ener =     No
    Local CC        =     No
    SCS-MP2         =     False
    SCSN-MP2        =     False
    SCS-CCSD        =     False

MP2 correlation energy -0.3404623505991798
                Solving CC Amplitude Equations
                ------------------------------
  Iter             Energy              RMS        T1Diag      D1Diag    New D1Diag    D2Diag

      * MP2 total energy                      = -1394.636224570657532
      * CCSD total energy                     = -1394.665559975226415
      * CCSD(T) total energy                     = -1394.686971858921197
*** Psi4 exiting successfully. Buy a developer a beer!
