                               Psi4 1.4a2.dev191

  ==> Input File <==

--------------------------------------------------------------------------
memory 10 GB

molecule  {
-2 1
S
S 1 R1
S 1 R2 2 A1
R1 = 1.5
R2 = 1.5
A1 = 120.0
}

set {
reference uks
basis aug-cc-pvtz
}

optimize('b3lyp')
--------------------------------------------------------------------------

    Molecular point group: c2v
  Charge       = -2
  Multiplicity = 1
  Basis Set: AUG-CC-PVTZ
    Blend: AUG-CC-PVTZ
  Basis Set: (AUG-CC-PVTZ AUX)
    Blend: AUG-CC-PVTZ-JKFIT
  @DF-UKS Final Energy: -1194.09657789371886
    Total Energy =                      -1194.0965778937190862
    Molecular point group: c2v
  Basis Set: AUG-CC-PVTZ
    Blend: AUG-CC-PVTZ
  Basis Set: (AUG-CC-PVTZ AUX)
    Blend: AUG-CC-PVTZ-JKFIT
  Basis Set: AUG-CC-PVTZ
    Blend: AUG-CC-PVTZ
  Basis Set: (AUG-CC-PVTZ AUX)
    Blend: AUG-CC-PVTZ-JKFIT
  @DF-UKS Final Energy: -1194.31797869733100
    Total Energy =                      -1194.3179786973314549
  Basis Set: AUG-CC-PVTZ
    Blend: AUG-CC-PVTZ
  Basis Set: (AUG-CC-PVTZ AUX)
    Blend: AUG-CC-PVTZ-JKFIT
  Basis Set: AUG-CC-PVTZ
    Blend: AUG-CC-PVTZ
  @DF-UKS Final Energy: -1194.51508574170407
    Total Energy =                      -1194.5150857417038424
  @DF-UKS Final Energy: -1194.58547849683305
    Total Energy =                      -1194.5854784968335025
  @DF-UKS Final Energy: -1194.62149169445161
    Total Energy =                      -1194.6214916944516062
  @DF-UKS Final Energy: -1194.63482130463080
    Total Energy =                      -1194.6348213046305773
  @DF-UKS Final Energy: -1194.64313370771333
    Total Energy =                      -1194.6431337077135595
  @DF-UKS Final Energy: -1194.64813202028904
    Total Energy =                      -1194.6481320202890402
  @DF-UKS Final Energy: -1194.64934338044441
    Total Energy =                      -1194.6493433804446340
  @DF-UKS Final Energy: -1194.64947293030286
    Total Energy =                      -1194.6494729303030908
  Basis Set: (AUG-CC-PVTZ AUX)
    Blend: AUG-CC-PVTZ-JKFIT
  Basis Set: AUG-CC-PVTZ
    Blend: AUG-CC-PVTZ
  Basis Set: (AUG-CC-PVTZ AUX)
    Blend: AUG-CC-PVTZ-JKFIT
  @DF-UKS Final Energy: -1194.64948677954771
    Total Energy =                      -1194.6494867795479422
  Basis Set: AUG-CC-PVTZ
    Blend: AUG-CC-PVTZ
  Basis Set: (AUG-CC-PVTZ AUX)
    Blend: AUG-CC-PVTZ-JKFIT
  Charge       = -2
  Multiplicity = 1
  Basis Set: AUG-CC-PVTZ
    Blend: AUG-CC-PVTZ
  Basis Set: (AUG-CC-PVTZ AUX)
    Blend: AUG-CC-PVTZ-JKFIT

    Orbital Energies [Eh]
    ---------------------

    Alpha Occupied:

       1A1   -88.569809     1B2   -88.514759     2A1   -88.514756
       3A1    -7.613735     2B2    -7.562334     4A1    -7.562330
       3B2    -5.578958     5A1    -5.575846     1B1    -5.568650
       6A1    -5.528416     4B2    -5.528415     7A1    -5.520619
       5B2    -5.520619     1A2    -5.519670     2B1    -5.519670
       8A1    -0.411613     6B2    -0.306828     9A1    -0.210941
       7B2    -0.013823    10A1     0.013002     3B1     0.033441
       2A2     0.110001    11A1     0.113190     8B2     0.118240
       4B1     0.164945

    Alpha Virtual:

       9B2     0.231947    12A1     0.235162    13A1     0.273401
      14A1     0.290702     5B1     0.296480    10B2     0.297559
       3A2     0.304335     6B1     0.315859    15A1     0.318167
      11B2     0.318258    12B2     0.344621    16A1     0.351047
      17A1     0.417534    13B2     0.424207     7B1     0.463629
       4A2     0.483797    18A1     0.483900    14B2     0.515831
      19A1     0.523041    15B2     0.527694     8B1     0.540384
      20A1     0.546565     5A2     0.553302     9B1     0.587051
      21A1     0.587052    16B2     0.593166    17B2     0.608811
       6A2     0.630893    22A1     0.658372    10B1     0.729086
      23A1     0.751865     7A2     0.802585    24A1     0.806207
      18B2     0.817051    25A1     0.820925    19B2     0.834648
       8A2     0.835940    11B1     0.840008    26A1     0.848473
      12B1     0.857362    20B2     0.863590    27A1     0.895787
      21B2     0.910386    13B1     0.913141    28A1     0.920539
       9A2     0.933486    22B2     0.938972    29A1     0.943920
      23B2     0.957666    14B1     0.971316    30A1     1.012437
      10A2     1.017731    15B1     1.020928    31A1     1.064552
      24B2     1.068512    16B1     1.074894    11A2     1.075565
      32A1     1.088103    25B2     1.104206    33A1     1.131929
      26B2     1.199699    12A2     1.227772    17B1     1.255713
      34A1     1.284673    27B2     1.302316    13A2     1.304956
      35A1     1.378536    18B1     1.392809    28B2     1.411623
      29B2     1.436254    36A1     1.459982    19B1     1.481754
      14A2     1.484560    37A1     1.561865    30B2     1.577866
      31B2     1.663290    38A1     1.788626    39A1     2.095472
      20B1     2.102764    15A2     2.114289    32B2     2.129972
      40A1     2.152567    16A2     2.156722    21B1     2.164921
      41A1     2.188732    33B2     2.189029    22B1     2.254810
      42A1     2.263006    34B2     2.270441    17A2     2.308292
      43A1     2.319630    23B1     2.326716    35B2     2.327850
      18A2     2.345682    36B2     2.359869    24B1     2.368876
      44A1     2.371661    25B1     2.403948    37B2     2.428545
      45A1     2.430690    26B1     2.462745    46A1     2.464131
      19A2     2.472450    38B2     2.480309    47A1     2.530325
      20A2     2.531573    27B1     2.541164    48A1     2.551010
      39B2     2.552284    21A2     2.553703    28B1     2.603130
      49A1     2.636960    40B2     2.642106    41B2     2.663734
      50A1     2.719972    42B2     2.727376    51A1     2.783368
      22A2     2.818529    29B1     2.820782    43B2     2.917368
      52A1     3.818626    44B2     3.846664    53A1     4.826332
      45B2     5.373068    54A1     5.931154

    Beta Occupied:

       1A1   -88.569809     1B2   -88.514759     2A1   -88.514756
       3A1    -7.613735     2B2    -7.562334     4A1    -7.562330
       3B2    -5.578958     5A1    -5.575846     1B1    -5.568650
       6A1    -5.528416     4B2    -5.528415     7A1    -5.520619
       5B2    -5.520619     1A2    -5.519670     2B1    -5.519670
       8A1    -0.411613     6B2    -0.306828     9A1    -0.210941
       7B2    -0.013823    10A1     0.013002     3B1     0.033441
       2A2     0.110001    11A1     0.113190     8B2     0.118240
       4B1     0.164945

    Beta Virtual:

       9B2     0.231947    12A1     0.235162    13A1     0.273401
      14A1     0.290702     5B1     0.296480    10B2     0.297559
       3A2     0.304335     6B1     0.315859    15A1     0.318167
      11B2     0.318258    12B2     0.344621    16A1     0.351047
      17A1     0.417534    13B2     0.424207     7B1     0.463629
       4A2     0.483797    18A1     0.483900    14B2     0.515831
      19A1     0.523041    15B2     0.527694     8B1     0.540384
      20A1     0.546565     5A2     0.553302     9B1     0.587051
      21A1     0.587052    16B2     0.593166    17B2     0.608811
       6A2     0.630893    22A1     0.658372    10B1     0.729086
      23A1     0.751865     7A2     0.802585    24A1     0.806207
      18B2     0.817051    25A1     0.820925    19B2     0.834648
       8A2     0.835940    11B1     0.840008    26A1     0.848473
      12B1     0.857362    20B2     0.863590    27A1     0.895787
      21B2     0.910386    13B1     0.913141    28A1     0.920539
       9A2     0.933486    22B2     0.938972    29A1     0.943920
      23B2     0.957666    14B1     0.971316    30A1     1.012437
      10A2     1.017731    15B1     1.020928    31A1     1.064552
      24B2     1.068512    16B1     1.074894    11A2     1.075565
      32A1     1.088103    25B2     1.104206    33A1     1.131929
      26B2     1.199699    12A2     1.227772    17B1     1.255713
      34A1     1.284673    27B2     1.302316    13A2     1.304956
      35A1     1.378536    18B1     1.392809    28B2     1.411623
      29B2     1.436254    36A1     1.459982    19B1     1.481754
      14A2     1.484560    37A1     1.561865    30B2     1.577866
      31B2     1.663290    38A1     1.788626    39A1     2.095472
      20B1     2.102764    15A2     2.114289    32B2     2.129972
      40A1     2.152567    16A2     2.156722    21B1     2.164921
      41A1     2.188732    33B2     2.189029    22B1     2.254810
      42A1     2.263006    34B2     2.270441    17A2     2.308292
      43A1     2.319630    23B1     2.326716    35B2     2.327850
      18A2     2.345682    36B2     2.359869    24B1     2.368876
      44A1     2.371661    25B1     2.403948    37B2     2.428545
      45A1     2.430690    26B1     2.462745    46A1     2.464131
      19A2     2.472450    38B2     2.480309    47A1     2.530325
      20A2     2.531573    27B1     2.541164    48A1     2.551010
      39B2     2.552284    21A2     2.553703    28B1     2.603130
      49A1     2.636960    40B2     2.642106    41B2     2.663734
      50A1     2.719972    42B2     2.727376    51A1     2.783368
      22A2     2.818529    29B1     2.820782    43B2     2.917368
      52A1     3.818626    44B2     3.846664    53A1     4.826332
      45B2     5.373068    54A1     5.931154

    Final Occupation by Irrep:
             A1    A2    B1    B2
    DOCC [    11,    2,    4,    8 ]
    SOCC [     0,    0,    0,    0 ]

  @DF-UKS Final Energy: -1194.64949101025763

   => Energetics <=

    Nuclear Repulsion Energy =            164.5049350691033396
    One-Electron Energy =               -1996.7983587956784959
    Two-Electron Energy =                 699.9815665093267398
    DFT Exchange-Correlation Energy =     -62.3376337930093243
    Empirical Dispersion Energy =           0.0000000000000000
    VV10 Nonlocal Energy =                  0.0000000000000000
    Total Energy =                      -1194.6494910102576341

  UHF NO Occupations:
  HONO-2 :    4 B1 2.0000000
  HONO-1 :    7 B2 2.0000000
  HONO-0 :    8 B2 2.0000000
  LUNO+0 :   12 A1 0.0000000
  LUNO+1 :    9 B2 0.0000000
  LUNO+2 :   10 B2 0.0000000
  LUNO+3 :   13 A1 0.0000000

Computation Completed

Properties will be evaluated at   0.000000,   0.000000,   0.000000 [a0]

Properties computed using the SCF density matrix

  Nuclear Dipole Moment: [e a0]
     X:     0.0000      Y:     0.0000      Z:     0.0000

  Electronic Dipole Moment: [e a0]
     X:     0.0000      Y:     0.0000      Z:    -0.7493

  Dipole Moment: [e a0]
     X:     0.0000      Y:     0.0000      Z:    -0.7493     Total:     0.7493

  Dipole Moment: [D]
     X:     0.0000      Y:     0.0000      Z:    -1.9047     Total:     1.9047

*** tstop() called on c2-3.compute.lan at Fri Jan 29 10:56:41 2021
Module time:
	user time   =      11.09 seconds =       0.18 minutes
	system time =       0.10 seconds =       0.00 minutes
	total time  =         12 seconds =       0.20 minutes
Total time:
	user time   =     235.45 seconds =       3.92 minutes
	system time =       2.73 seconds =       0.05 minutes
	total time  =        239 seconds =       3.98 minutes

*** tstart() called on c2-3.compute.lan
*** at Fri Jan 29 10:56:41 2021

         ------------------------------------------------------------
                                   SCF GRAD
                          Rob Parrish, Justin Turney,
                       Andy Simmonett, and Alex Sokolov
         ------------------------------------------------------------

  ==> Geometry <==

    Molecular point group: c2v
    Full point group: C2v

    Geometry (in Angstrom), charge = -2, multiplicity = 1:

       Center              X                  Y                   Z               Mass
    ------------   -----------------  -----------------  -----------------  -----------------
         S            0.000000000000     0.000000000000    -0.776681338742    31.972071174400
         S            0.000000000000    -1.792755381692     0.388340669371    31.972071174400
         S            0.000000000000     1.792755381692     0.388340669371    31.972071174400

  Nuclear repulsion =  164.504935069103340

  ==> Basis Set <==

  Basis Set: AUG-CC-PVTZ
    Blend: AUG-CC-PVTZ
    Number of shells: 48
    Number of basis function: 150
    Number of Cartesian functions: 177
    Spherical Harmonics?: true
    Max angular momentum: 3

  ==> DFJKGrad: Density-Fitted SCF Gradients <==

    Gradient:                    1
    J tasked:                  Yes
    K tasked:                  Yes
    wK tasked:                  No
    OpenMP threads:              1
    Integrals threads:           1
    Memory [MiB]:             7152
    Schwarz Cutoff:          0E+00
    Fitting Condition:       1E-10

   => Auxiliary Basis Set <=

  Basis Set: (AUG-CC-PVTZ AUX)
    Blend: AUG-CC-PVTZ-JKFIT
    Number of shells: 126
    Number of basis function: 438
    Number of Cartesian functions: 540
    Spherical Harmonics?: true
    Max angular momentum: 4

  ==> DFT Potential <==

   => Composite Functional: B3LYP <=

    B3LYP Hyb-GGA Exchange-Correlation Functional

    P. J. Stephens, F. J. Devlin, C. F. Chabalowski, and M. J. Frisch, J. Phys. Chem. 98, 11623 (1994)

    Deriv               =              1
    GGA                 =           TRUE
    Meta                =          FALSE

    Exchange Hybrid     =           TRUE
    MP2 Hybrid          =          FALSE

   => Exchange Functionals <=

    0.0800   Slater exchange
    0.7200         Becke 88

   => Exact (HF) Exchange <=

    0.2000               HF

   => Correlation Functionals <=

    0.1900   Vosko, Wilk & Nusair (VWN5_RPA)
    0.8100   Lee, Yang & Parr

   => Molecular Quadrature <=

    Radial Scheme          =       TREUTLER
    Pruning Scheme         =           NONE
    Nuclear Scheme         =       TREUTLER

    BS radius alpha        =              1
    Pruning alpha          =              1
    Radial Points          =             75
    Spherical Points       =            302
    Total Points           =          65906
    Total Blocks           =            600
    Max Points             =            255
    Max Functions          =            150
    Weights Tolerance      =       1.00E-15

  -Total Gradient:
     Atom            X                  Y                   Z
    ------   -----------------  -----------------  -----------------
       1       -0.000000000000     0.000000000000    -0.000042320018
       2        0.000000000000    -0.000035037392     0.000014885026
       3       -0.000000000000     0.000035037392     0.000014885026

*** tstop() called on c2-3.compute.lan at Fri Jan 29 10:56:49 2021
Module time:
	user time   =       7.93 seconds =       0.13 minutes
	system time =       0.09 seconds =       0.00 minutes
	total time  =          8 seconds =       0.13 minutes
Total time:
	user time   =     243.38 seconds =       4.06 minutes
	system time =       2.82 seconds =       0.05 minutes
	total time  =        247 seconds =       4.12 minutes

			-----------------------------------------
			 OPTKING 2.0: for geometry optimizations
			  - R.A. King,  Bethel University
			-----------------------------------------

	Previous internal coordinate definitions found.
	---Fragment 1 Geometry and Gradient---
	 S           0.0000000000        0.0000000000       -1.4677150170
	 S           0.0000000000       -3.3878166813        0.7338575085
	 S           0.0000000000        3.3878166813        0.7338575085
	            -0.0000000000        0.0000000000       -0.0000423200
	             0.0000000000       -0.0000350374        0.0000148850
	            -0.0000000000        0.0000350374        0.0000148850

	---Fragment 1 Intrafragment Coordinates---
	 - Coordinate -           - BOHR/RAD -       - ANG/DEG -
	 R(1,2)           =         4.040325	       2.138048
	 R(1,3)           =         4.040325	       2.138048
	 R(2,3)           =         6.775633	       3.585511
	 B(1,2,3)         =         0.576270	      33.017824
	 B(1,3,2)         =         0.576270	      33.017824
	 B(2,1,3)         =         1.989053	     113.964353

	Current energy   :     -1194.6494910103

	Energy change for the previous step:
		Projected    :        -0.0000114729
		Actual       :        -0.0000042307

	Performing BFGS update.
	Previous computed or guess Hessian on step 1.
	Steps to be used in Hessian update: 11 10
	Taking RFO optimization step.
	Going to follow RFO solution 1.
	Using RFO vector 1.
	Norm of target step-size    0.00086
	Projected energy change by RFO approximation:        -0.0000000358

	Back-transformation to cartesian coordinates...
	Successfully converged to displaced geometry.

	--- Internal Coordinate Step in ANG or DEG, aJ/ANG or AJ/DEG ---
	 ---------------------------------------------------------------------------
	   Coordinate                Previous        Force       Change         New
	   ----------                --------       ------       ------       ------
	    1 R(1,2)          =      2.138048    -0.000223    -0.000174     2.137874
	    2 R(1,3)          =      2.138048    -0.000223    -0.000174     2.137874
	    3 R(2,3)          =      3.585511    -0.000124    -0.000379     3.585132
	    4 B(1,2,3)        =     33.017824    -0.000001     0.002155    33.019978
	    5 B(1,3,2)        =     33.017824    -0.000001     0.002155    33.019978
	    6 B(2,1,3)        =    113.964353     0.000001    -0.004309   113.960043
	 ---------------------------------------------------------------------------
	Successfully symmetrized geometry.

  ==> Convergence Check <==

  Measures of convergence in internal coordinates in au.
  Criteria marked as inactive (o), active & met (*), and active & unmet ( ).
  ---------------------------------------------------------------------------------------------
   Step     Total Energy     Delta E     MAX Force     RMS Force      MAX Disp      RMS Disp
  ---------------------------------------------------------------------------------------------
    Convergence Criteria    1.00e-06 *    3.00e-04 *             o    1.20e-03 *             o
  ---------------------------------------------------------------------------------------------
     12   -1194.64949101   -4.23e-06      2.71e-05 *    1.82e-05 o    7.17e-04 *    3.51e-04 o  ~
  ---------------------------------------------------------------------------------------------

  **** Optimization is complete! (in 12 steps) ****

  ==> Optimization Summary <==

  Measures of convergence in internal coordinates in au.
  --------------------------------------------------------------------------------------------------------------- ~
   Step         Total Energy             Delta E       MAX Force       RMS Force        MAX Disp        RMS Disp  ~
  --------------------------------------------------------------------------------------------------------------- ~
      1   -1194.096577893719  -1194.096577893719      0.46698975      0.34552749      0.19767329      0.13487404  ~
      2   -1194.317978697331     -0.221400803612      0.32076982      0.22941394      0.28724795      0.19838921  ~
      3   -1194.515085741704     -0.197107044373      0.16576851      0.11177251      0.21377836      0.14128741  ~
      4   -1194.585478496833     -0.070392755129      0.08759578      0.05845255      0.21656709      0.14870719  ~
      5   -1194.621491694452     -0.036013197619      0.03772472      0.02622233      0.23478522      0.11750682  ~
      6   -1194.634821304631     -0.013329610179      0.02648406      0.01428936      0.29060872      0.13386256  ~
      7   -1194.643133707713     -0.008312403083      0.01663450      0.00752384      0.36347393      0.16311719  ~
      8   -1194.648132020289     -0.004998312576      0.00696539      0.00363341      0.23043072      0.10319835  ~
      9   -1194.649343380444     -0.001211360155      0.00231857      0.00183710      0.07609348      0.03473977  ~
     10   -1194.649472930303     -0.000129549858      0.00125869      0.00087003      0.00519021      0.00400361  ~
     11   -1194.649486779548     -0.000013849245      0.00063185      0.00042804      0.00536724      0.00362730  ~
     12   -1194.649491010258     -0.000004230710      0.00002711      0.00001818      0.00071665      0.00035072  ~
  --------------------------------------------------------------------------------------------------------------- ~

	Writing optimization data to binary file.
	Final energy is  -1194.6494910102576
	Final (previous) structure:
	Cartesian Geometry (in Angstrom)
	    S     0.0000000000   0.0000000000  -0.7766813357
	    S     0.0000000000  -1.7927553746   0.3883406678
	    S     0.0000000000   1.7927553746   0.3883406678
	Saving final (previous) structure.
			--------------------------
			 OPTKING Finished Execution
			--------------------------

    Final optimized geometry and variables:
    Molecular point group: c2v
    Full point group: C2v

    Geometry (in Angstrom), charge = -2, multiplicity = 1:

    S
    S             1          R1
    S             1          R2      2          A1

*** Psi4 exiting successfully. Buy a developer a beer!
