                               Psi4 1.4a2.dev191

  ==> Input File <==

--------------------------------------------------------------------------
memory 10 GB

molecule  {
0 3
S
S 1 r1
S 1 r2 2 a1
r1 = 2.0
r2 = 2.1
a1 = 120.0
}

set {
reference uks
basis aug-cc-pvtz
g_convergence gau_verytight
dft_spherical_points 590
dft_radial_points 99
}

optimize('wb97m-v')
frequencies('wb97m-v')

--------------------------------------------------------------------------

    Molecular point group: cs
  Charge       = 0
  Multiplicity = 3
  Basis Set: AUG-CC-PVTZ
    Blend: AUG-CC-PVTZ
  Basis Set: (AUG-CC-PVTZ AUX)
    Blend: AUG-CC-PVTZ-JKFIT
  @DF-UKS Final Energy: -1194.49607321064650
    Total Energy =                      -1194.4960732106465002
    Molecular point group: cs
  Basis Set: AUG-CC-PVTZ
    Blend: AUG-CC-PVTZ
  Basis Set: (AUG-CC-PVTZ AUX)
    Blend: AUG-CC-PVTZ-JKFIT
  @DF-UKS Final Energy: -1194.49611758544074
    Total Energy =                      -1194.4961175854407429
  Basis Set: AUG-CC-PVTZ
    Blend: AUG-CC-PVTZ
  Basis Set: (AUG-CC-PVTZ AUX)
    Blend: AUG-CC-PVTZ-JKFIT
  @DF-UKS Final Energy: -1194.49602874210268
    Total Energy =                      -1194.4960287421024532
  Basis Set: AUG-CC-PVTZ
    Blend: AUG-CC-PVTZ
  Basis Set: (AUG-CC-PVTZ AUX)
    Blend: AUG-CC-PVTZ-JKFIT
  @DF-UKS Final Energy: -1194.49607750439895
    Total Energy =                      -1194.4960775043989543
  @DF-UKS Final Energy: -1194.49606869007812
    Total Energy =                      -1194.4960686900781184
  @DF-UKS Final Energy: -1194.49610816227960
    Total Energy =                      -1194.4961081622793699
  @DF-UKS Final Energy: -1194.49603814268153
    Total Energy =                      -1194.4960381426817548
  @DF-UKS Final Energy: -1194.50296246723815
    Total Energy =                      -1194.5029624672381487
  @DF-UKS Final Energy: -1194.50298750762977
    Total Energy =                      -1194.5029875076295411
  @DF-UKS Final Energy: -1194.50293727984081
    Total Energy =                      -1194.5029372798408076
  @DF-UKS Final Energy: -1194.50295844772381
    Total Energy =                      -1194.5029584477238132
  @DF-UKS Final Energy: -1194.50296617568847
    Total Energy =                      -1194.5029661756884707
  @DF-UKS Final Energy: -1194.50297653830648
    Total Energy =                      -1194.5029765383064841
  @DF-UKS Final Energy: -1194.50294825035166
    Total Energy =                      -1194.5029482503516647
  @DF-UKS Final Energy: -1194.50455023512745
    Total Energy =                      -1194.5045502351274536
  @DF-UKS Final Energy: -1194.50453652429542
    Total Energy =                      -1194.5045365242954176
  @DF-UKS Final Energy: -1194.50456334978071
    Total Energy =                      -1194.5045633497807103
  @DF-UKS Final Energy: -1194.50455714337977
    Total Energy =                      -1194.5045571433795430
  @DF-UKS Final Energy: -1194.50454276901746
    Total Energy =                      -1194.5045427690176894
  @DF-UKS Final Energy: -1194.50453900783759
    Total Energy =                      -1194.5045390078375931
  **** Optimization is complete! (in 10 steps) ****
    Final optimized geometry and variables:
  @DF-UKS Final Energy: -1194.50496273712929
    Total Energy =                      -1194.5049627371292900
  @DF-UKS Final Energy: -1194.50496263195646
    Total Energy =                      -1194.5049626319564595
  @DF-UKS Final Energy: -1194.50496263676882
    Total Energy =                      -1194.5049626367688234
  @DF-UKS Final Energy: -1194.50496252086305
    Total Energy =                      -1194.5049625208632733
  @DF-UKS Final Energy: -1194.50496252499670
    Total Energy =                      -1194.5049625249966994
  @DF-UKS Final Energy: -1194.50496265192692
    Total Energy =                      -1194.5049626519269168
  @DF-UKS Final Energy: -1194.50496265029119
    Total Energy =                      -1194.5049626502911906
  @DF-UKS Final Energy: -1194.50496273713088
    Total Energy =                      -1194.5049627371308816
  @DF-UKS Final Energy: -1194.50496263195737
    Total Energy =                      -1194.5049626319573690
  @DF-UKS Final Energy: -1194.50496263676678
    Total Energy =                      -1194.5049626367667770
  @DF-UKS Final Energy: -1194.50496252086350
    Total Energy =                      -1194.5049625208632733
  @DF-UKS Final Energy: -1194.50496252499352
    Total Energy =                      -1194.5049625249935161
  @DF-UKS Final Energy: -1194.50496265193078
    Total Energy =                      -1194.5049626519305548
  @DF-UKS Final Energy: -1194.50496265029301
    Total Energy =                      -1194.5049626502930096
  @DF-UKS Final Energy: -1194.50496256287306
    Total Energy =                      -1194.5049625628730610
  @DF-UKS Final Energy: -1194.50496255564167
    Total Energy =                      -1194.5049625556414412
  Basis Set: AUG-CC-PVTZ
    Blend: AUG-CC-PVTZ
  Basis Set: (AUG-CC-PVTZ AUX)
    Blend: AUG-CC-PVTZ-JKFIT
  @DF-UKS Final Energy: -1194.50496244685746
    Total Energy =                      -1194.5049624468574621
  Basis Set: AUG-CC-PVTZ
    Blend: AUG-CC-PVTZ
  Basis Set: (AUG-CC-PVTZ AUX)
    Blend: AUG-CC-PVTZ-JKFIT
  @DF-UKS Final Energy: -1194.50496244442184
    Total Energy =                      -1194.5049624444218352
  Multiplicity = 3
  Basis Set: AUG-CC-PVTZ
    Blend: AUG-CC-PVTZ
  Basis Set: (AUG-CC-PVTZ AUX)
    Blend: AUG-CC-PVTZ-JKFIT
  @DF-UKS Final Energy: -1194.50496238755773
    Total Energy =                      -1194.5049623875577254
    Molecular point group: cs

    Geometry (in Angstrom), charge = 0, multiplicity = 3:

       Center              X                  Y                   Z               Mass
    ------------   -----------------  -----------------  -----------------  -----------------
         S            0.519117407748     0.258735167309     0.000000000000    31.972071174400
         S            0.519043556271    -1.689109491946     0.000000000000    31.972071174400
         S           -1.038160964019     1.430374324636     0.000000000000    31.972071174400

  Charge       = 0
  Multiplicity = 3
  Basis Set: AUG-CC-PVTZ
    Blend: AUG-CC-PVTZ
  Basis Set: (AUG-CC-PVTZ AUX)
    Blend: AUG-CC-PVTZ-JKFIT

    Orbital Energies [Eh]
    ---------------------

    Alpha Occupied:

       1Ap   -89.324321     2Ap   -89.252910     3Ap   -89.252588
       4Ap    -8.231075     5Ap    -8.164269     6Ap    -8.163929
       1App   -6.139584     7Ap    -6.139440     8Ap    -6.138751
       9Ap    -6.077355    10Ap    -6.077017     2App   -6.069668
      11Ap    -6.069608     3App   -6.069367    12Ap    -6.069217
      13Ap    -1.005250    14Ap    -0.877765    15Ap    -0.724657
      16Ap    -0.543034    17Ap    -0.514914     4App   -0.513170
       5App   -0.402065    18Ap    -0.385730    19Ap    -0.375932
       6App   -0.313503

    Alpha Virtual:

      20Ap     0.004135    21Ap     0.033265    22Ap     0.047453
      23Ap     0.057552     7App    0.064132    24Ap     0.078145
      25Ap     0.085518     8App    0.088799    26Ap     0.097203
       9App    0.098325    27Ap     0.099031    28Ap     0.114733
      29Ap     0.170204    10App    0.179929    30Ap     0.195201
      31Ap     0.197919    11App    0.203680    32Ap     0.242934
      33Ap     0.269380    12App    0.279868    34Ap     0.280553
      13App    0.290150    35Ap     0.295701    36Ap     0.334937
      14App    0.339621    37Ap     0.350382    38Ap     0.373307
      15App    0.387599    39Ap     0.404881    16App    0.443783
      40Ap     0.461234    17App    0.504316    41Ap     0.524146
      42Ap     0.531936    43Ap     0.540192    18App    0.544843
      44Ap     0.558613    45Ap     0.559548    46Ap     0.567989
      19App    0.570890    20App    0.575174    47Ap     0.613196
      21App    0.616564    48Ap     0.627342    22App    0.627845
      49Ap     0.631502    50Ap     0.640941    51Ap     0.665732
      23App    0.685308    52Ap     0.695244    24App    0.723478
      53Ap     0.724880    25App    0.761107    26App    0.786352
      54Ap     0.786740    55Ap     0.804747    27App    0.824493
      56Ap     0.857430    57Ap     0.863356    58Ap     0.873423
      28App    0.940768    59Ap     0.949098    29App    0.993721
      60Ap     1.021677    30App    1.068560    61Ap     1.080393
      62Ap     1.116921    31App    1.126903    63Ap     1.154130
      64Ap     1.185021    65Ap     1.193617    32App    1.220025
      33App    1.235799    66Ap     1.320105    67Ap     1.336330
      68Ap     1.402048    69Ap     1.478285    70Ap     1.744360
      34App    1.760966    35App    1.790135    71Ap     1.790440
      36App    1.826291    37App    1.829949    72Ap     1.830092
      73Ap     1.838523    74Ap     1.859589    38App    1.903341
      75Ap     1.933150    76Ap     1.943245    77Ap     1.964071
      78Ap     1.967747    39App    1.972334    40App    1.987386
      79Ap     1.994122    41App    2.016181    42App    2.028573
      80Ap     2.034093    43App    2.060242    81Ap     2.066391
      82Ap     2.112595    44App    2.131337    83Ap     2.134863
      45App    2.140203    84Ap     2.141994    46App    2.213183
      85Ap     2.227090    86Ap     2.260486    47App    2.279527
      87Ap     2.283437    48App    2.297490    49App    2.380898
      88Ap     2.381368    89Ap     2.447112    90Ap     2.483423
      91Ap     2.515945    50App    2.571512    92Ap     2.581735
      93Ap     2.625539    51App    2.629219    94Ap     2.792865
      95Ap     3.591471    96Ap     3.768586    97Ap     5.049687
      98Ap     5.241275    99Ap     5.649936

    Beta Occupied:

       1Ap   -89.319992     2Ap   -89.248481     3Ap   -89.248173
       4Ap    -8.226580     5Ap    -8.159824     6Ap    -8.159498
       7Ap    -6.136608     8Ap    -6.132988     1App   -6.127484
       9Ap    -6.070849    10Ap    -6.070541    11Ap    -6.062676
      12Ap    -6.062343     2App   -6.061111     3App   -6.060795
      13Ap    -0.986527    14Ap    -0.854266    15Ap    -0.678947
      16Ap    -0.510737    17Ap    -0.492741     4App   -0.476457
       5App   -0.350034    18Ap    -0.343030

    Beta Virtual:

      19Ap    -0.133586     6App   -0.072430    20Ap     0.013722
      21Ap     0.034765    22Ap     0.049030    23Ap     0.057887
       7App    0.064648    24Ap     0.079356    25Ap     0.086527
       8App    0.088000     9App    0.098786    26Ap     0.100960
      27Ap     0.105069    28Ap     0.131847    29Ap     0.171363
      10App    0.185369    30Ap     0.197189    31Ap     0.201316
      11App    0.218045    32Ap     0.249138    33Ap     0.273634
      12App    0.286915    34Ap     0.291496    13App    0.301315
      35Ap     0.301599    36Ap     0.336077    14App    0.343681
      37Ap     0.353663    38Ap     0.375532    15App    0.391453
      39Ap     0.410056    16App    0.451687    40Ap     0.465450
      17App    0.512888    41Ap     0.530628    42Ap     0.537246
      43Ap     0.545410    18App    0.556281    44Ap     0.562823
      45Ap     0.564923    46Ap     0.574577    19App    0.579731
      20App    0.580490    47Ap     0.619345    48Ap     0.634652
      21App    0.637596    22App    0.640526    49Ap     0.646964
      50Ap     0.653731    51Ap     0.682309    23App    0.696363
      52Ap     0.711118    24App    0.733531    53Ap     0.736211
      25App    0.780240    26App    0.790678    54Ap     0.791086
      55Ap     0.812244    27App    0.832374    56Ap     0.862717
      57Ap     0.872244    58Ap     0.889239    28App    0.944648
      59Ap     0.955007    29App    1.000122    60Ap     1.025792
      30App    1.074128    61Ap     1.084830    62Ap     1.118890
      31App    1.132449    63Ap     1.161249    64Ap     1.192392
      65Ap     1.202239    32App    1.227788    33App    1.245119
      66Ap     1.330557    67Ap     1.355458    68Ap     1.420974
      69Ap     1.506200    70Ap     1.778454    34App    1.790698
      71Ap     1.820418    35App    1.823006    36App    1.840065
      72Ap     1.848472    37App    1.862300    73Ap     1.867780
      74Ap     1.878802    38App    1.936355    75Ap     1.952268
      76Ap     1.962644    77Ap     1.985974    78Ap     1.989472
      39App    2.003823    79Ap     2.008739    40App    2.010135
      41App    2.040297    42App    2.047649    80Ap     2.054490
      81Ap     2.088410    43App    2.098184    82Ap     2.140301
      83Ap     2.161929    44App    2.162814    45App    2.170619
      84Ap     2.171582    46App    2.235204    85Ap     2.252062
      86Ap     2.283340    47App    2.304276    87Ap     2.305301
      48App    2.318116    88Ap     2.398122    49App    2.405969
      89Ap     2.465411    90Ap     2.498892    91Ap     2.532323
      50App    2.591714    92Ap     2.599510    93Ap     2.645358
      51App    2.654653    94Ap     2.811429    95Ap     3.605164
      96Ap     3.775615    97Ap     5.066239    98Ap     5.256322
      99Ap     5.665178

    Final Occupation by Irrep:
             Ap   App
    DOCC [    18,    5 ]
    SOCC [     1,    1 ]

  @DF-UKS Final Energy: -1194.50496238366304

   => Energetics <=

    Nuclear Repulsion Energy =            177.9170810893637622
    One-Electron Energy =               -2002.9431761880464364
    Two-Electron Energy =                 689.6987343699058783
    DFT Exchange-Correlation Energy =     -59.3757048676146368
    Empirical Dispersion Energy =           0.0000000000000000
    VV10 Nonlocal Energy =                  0.1981032127282361
    Total Energy =                      -1194.5049623836630417

  UHF NO Occupations:
  HONO-2 :   18 Ap 1.9939795
  HONO-1 :   19 Ap 1.0000000
  HONO-0 :    6App 1.0000000
  LUNO+0 :   20 Ap 0.0060205
  LUNO+1 :    7App 0.0018777
  LUNO+2 :    8App 0.0007296
  LUNO+3 :   21 Ap 0.0006254

Computation Completed

Properties will be evaluated at   0.000000,   0.000000,   0.000000 [a0]

Properties computed using the SCF density matrix

  Nuclear Dipole Moment: [e a0]
     X:     0.0000      Y:     0.0000      Z:     0.0000

  Electronic Dipole Moment: [e a0]
     X:     0.0436      Y:     0.0168      Z:     0.0000

  Dipole Moment: [e a0]
     X:     0.0436      Y:     0.0168      Z:     0.0000     Total:     0.0467

  Dipole Moment: [D]
     X:     0.1107      Y:     0.0426      Z:     0.0000     Total:     0.1187

*** tstop() called on c2-18.compute.lan at Tue Feb  2 22:14:48 2021
Module time:
	user time   =     456.13 seconds =       7.60 minutes
	system time =       1.82 seconds =       0.03 minutes
	total time  =        458 seconds =       7.63 minutes
Total time:
	user time   =   26548.27 seconds =     442.47 minutes
	system time =     197.78 seconds =       3.30 minutes
	total time  =      27301 seconds =     455.02 minutes

         ----------------------------------------------------------
                                   FINDIF
                     R. A. King and Jonathon Misiewicz
         ---------------------------------------------------------

  Computing second-derivative from energies using projected,
  symmetry-adapted, cartesian coordinates.

  13 energies passed in, including the reference geometry.
    Using 3-point formula.
    Energy without displacement: -1194.5049627371
    Check energies below for precision!
    0: -1        :     -1194.5049626320
    0: 1         :     -1194.5049626368
    1: -1        :     -1194.5049625209
    1: 1         :     -1194.5049625250
    2: -1        :     -1194.5049626519
    2: 1         :     -1194.5049626503
    0: 1, 1: 1   :     -1194.5049625629
    0: -1, 1: -1 :     -1194.5049625556
    0: 1, 2: 1   :     -1194.5049624469
    0: -1, 2: -1 :     -1194.5049624444
    1: 1, 2: 1   :     -1194.5049623876
    1: -1, 2: -1 :     -1194.5049623837

-------------------------------------------------------------

  ==> Harmonic Vibrational Analysis <==

  non-mass-weighted Hessian:       Symmetric? True   Hermitian? True   Lin Dep Dim?  6 (0)
  projection of translations (True) and rotations (True) removed 6 degrees of freedom (6)
  total projector:                 Symmetric? True   Hermitian? True   Lin Dep Dim?  6 (6)
  mass-weighted Hessian:           Symmetric? True   Hermitian? True   Lin Dep Dim?  6 (0)
  pre-proj  low-frequency mode:    0.0000i [cm^-1]
  pre-proj  low-frequency mode:    0.0000i [cm^-1]
  pre-proj  low-frequency mode:    0.0000i [cm^-1]
  pre-proj  low-frequency mode:    0.0000  [cm^-1]
  pre-proj  low-frequency mode:    0.0000  [cm^-1]
  pre-proj  low-frequency mode:    0.0000  [cm^-1]
  pre-proj  all modes:['0.0000i' '0.0000i' '0.0000i' '0.0000' '0.0000' '0.0000' '204.0657'
 '535.5701' '723.4851']
  projected mass-weighted Hessian: Symmetric? True   Hermitian? True   Lin Dep Dim?  6 (6)
  post-proj low-frequency mode:    0.0000i [cm^-1] (TR)
  post-proj low-frequency mode:    0.0000i [cm^-1] (TR)
  post-proj low-frequency mode:    0.0000i [cm^-1] (TR)
  post-proj low-frequency mode:    0.0000  [cm^-1] (TR)
  post-proj low-frequency mode:    0.0000  [cm^-1] (TR)
  post-proj low-frequency mode:    0.0000  [cm^-1] (TR)
  post-proj  all modes:['0.0000i' '0.0000i' '0.0000i' '0.0000' '0.0000' '0.0000' '204.0657'
 '535.5701' '723.4851']

  Vibration                       7                   8                   9
  Freq [cm^-1]                 204.0657            535.5701            723.4851
  Irrep                           Ap                  Ap                  Ap
  Reduced mass [u]             31.9721             31.9721             31.9721
  Force const [mDyne/A]         0.7844              5.4032              9.8601
  Turning point v=0 [a0]        0.1358              0.0839              0.0721
  RMS dev v=0 [a0 u^1/2]        0.5431              0.3353              0.2885
  Char temp [K]                293.6051            770.5662           1040.9340
  ----------------------------------------------------------------------------------
      1   S                0.55  0.28 -0.00   -0.48 -0.23 -0.00   -0.35  0.70  0.00
      2   S               -0.48  0.27 -0.00    0.00  0.60  0.00    0.00 -0.44  0.00
      3   S               -0.07 -0.55 -0.00    0.48 -0.36  0.00    0.35 -0.26  0.00

  ==> Thermochemistry Components <==

  Entropy, S
    Electronic S            2.183 [cal/(mol K)]        9.134 [J/(mol K)]       0.00347910 [mEh/K] (multiplicity = 3)
    Translational S        39.594 [cal/(mol K)]      165.660 [J/(mol K)]       0.06309659 [mEh/K] (mol. weight = 95.9162 [u], P = 101325.00 [Pa])
    Rotational S           24.912 [cal/(mol K)]      104.234 [J/(mol K)]       0.03970052 [mEh/K] (symmetry no. = 1)
    Vibrational S           2.950 [cal/(mol K)]       12.345 [J/(mol K)]       0.00470187 [mEh/K]
  Total S                  69.640 [cal/(mol K)]      291.373 [J/(mol K)]       0.11097807 [mEh/K]
  Correction S              0.000 [cal/(mol K)]        0.000 [J/(mol K)]       0.00000000 [mEh/K]

  Constant volume heat capacity, Cv
    Electronic Cv           0.000 [cal/(mol K)]        0.000 [J/(mol K)]       0.00000000 [mEh/K]
    Translational Cv        2.981 [cal/(mol K)]       12.472 [J/(mol K)]       0.00475022 [mEh/K]
    Rotational Cv           2.981 [cal/(mol K)]       12.472 [J/(mol K)]       0.00475022 [mEh/K]
    Vibrational Cv          3.790 [cal/(mol K)]       15.859 [J/(mol K)]       0.00604037 [mEh/K]
  Total Cv                  9.752 [cal/(mol K)]       40.802 [J/(mol K)]       0.01554081 [mEh/K]
  Correction Cv             0.000 [cal/(mol K)]        0.000 [J/(mol K)]       0.00000000 [mEh/K]

  Constant pressure heat capacity, Cp
    Electronic Cp           0.000 [cal/(mol K)]        0.000 [J/(mol K)]       0.00000000 [mEh/K]
    Translational Cp        4.968 [cal/(mol K)]       20.786 [J/(mol K)]       0.00791703 [mEh/K]
    Rotational Cp           2.981 [cal/(mol K)]       12.472 [J/(mol K)]       0.00475022 [mEh/K]
    Vibrational Cp          3.790 [cal/(mol K)]       15.859 [J/(mol K)]       0.00604037 [mEh/K]
  Total Cp                 11.739 [cal/(mol K)]       49.117 [J/(mol K)]       0.01870762 [mEh/K]
  Correction Cp             0.000 [cal/(mol K)]        0.000 [J/(mol K)]       0.00000000 [mEh/K]

  ==> Thermochemistry Energy Analysis <==

  Raw electronic energy, E0
  Total E0, Electronic energy at well bottom at 0 [K]                -1194.50496274 [Eh]

  Zero-point energy, ZPE_vib = Sum_i nu_i / 2
    Electronic ZPE          0.000 [kcal/mol]        0.000 [kJ/mol]       0.00000000 [Eh]
    Translational ZPE       0.000 [kcal/mol]        0.000 [kJ/mol]       0.00000000 [Eh]
    Rotational ZPE          0.000 [kcal/mol]        0.000 [kJ/mol]       0.00000000 [Eh]
    Vibrational ZPE         2.092 [kcal/mol]        8.751 [kJ/mol]       0.00333323 [Eh]         731.560 [cm^-1]
  Correction ZPE            2.092 [kcal/mol]        8.751 [kJ/mol]       0.00333323 [Eh]         731.560 [cm^-1]
  Total ZPE, Electronic energy at 0 [K]                              -1194.50162950 [Eh]

  Thermal Energy, E (includes ZPE)
    Electronic E            0.000 [kcal/mol]        0.000 [kJ/mol]       0.00000000 [Eh]
    Translational E         0.889 [kcal/mol]        3.718 [kJ/mol]       0.00141628 [Eh]
    Rotational E            0.889 [kcal/mol]        3.718 [kJ/mol]       0.00141628 [Eh]
    Vibrational E           2.629 [kcal/mol]       11.002 [kJ/mol]       0.00419028 [Eh]
  Correction E              4.407 [kcal/mol]       18.438 [kJ/mol]       0.00702284 [Eh]
  Total E, Electronic energy at  298.15 [K]                          -1194.49793990 [Eh]

  Enthalpy, H_trans = E_trans + k_B * T
    Electronic H            0.000 [kcal/mol]        0.000 [kJ/mol]       0.00000000 [Eh]
    Translational H         1.481 [kcal/mol]        6.197 [kJ/mol]       0.00236046 [Eh]
    Rotational H            0.889 [kcal/mol]        3.718 [kJ/mol]       0.00141628 [Eh]
    Vibrational H           2.629 [kcal/mol]       11.002 [kJ/mol]       0.00419028 [Eh]
  Correction H              4.999 [kcal/mol]       20.917 [kJ/mol]       0.00796702 [Eh]
  Total H, Enthalpy at  298.15 [K]                                   -1194.49699572 [Eh]

  Gibbs free energy, G = H - T * S
    Electronic G           -0.651 [kcal/mol]       -2.723 [kJ/mol]      -0.00103729 [Eh]
    Translational G       -10.324 [kcal/mol]      -43.194 [kJ/mol]      -0.01645179 [Eh]
    Rotational G           -6.539 [kcal/mol]      -27.359 [kJ/mol]      -0.01042043 [Eh]
    Vibrational G           1.750 [kcal/mol]        7.321 [kJ/mol]       0.00278842 [Eh]
  Correction G            -15.764 [kcal/mol]      -65.955 [kJ/mol]      -0.02512109 [Eh]
  Total G, Free enthalpy at  298.15 [K]                              -1194.53008383 [Eh]

    Psi4 stopped on: Tuesday, 02 February 2021 10:14PM
    Psi4 wall time for execution: 7:35:02.00

*** Psi4 exiting successfully. Buy a developer a beer!
