                               Psi4 1.4a2.dev191

  ==> Input File <==

--------------------------------------------------------------------------
memory 16 GB

molecule  {
-1 2
S
S 1 r1
S 1 r2 2 a1
S 2 r3 1 a2 3 d1
r1 = 2.051
r2 = 2.024
r3 = 2.024
a1 = 105.1
a2 = 105.1
d1 = 180.0
}

set {
reference uks
basis aug-cc-pvtz
g_convergence gau_verytight
dft_spherical_points 590
dft_radial_points 99
}

optimize('wb97x-d')
frequencies('wb97x-d')

--------------------------------------------------------------------------

    Molecular point group: c2h
  Charge       = -1
  Multiplicity = 2
  Basis Set: AUG-CC-PVTZ
    Blend: AUG-CC-PVTZ
  Basis Set: (AUG-CC-PVTZ AUX)
    Blend: AUG-CC-PVTZ-JKFIT
  @DF-UKS Final Energy: -1592.89997167862384
    Total Energy =                      -1592.8999716786238423
    Molecular point group: c2h
  Basis Set: AUG-CC-PVTZ
    Blend: AUG-CC-PVTZ
  Basis Set: (AUG-CC-PVTZ AUX)
    Blend: AUG-CC-PVTZ-JKFIT
  Basis Set: AUG-CC-PVTZ
    Blend: AUG-CC-PVTZ
  Basis Set: (AUG-CC-PVTZ AUX)
    Blend: AUG-CC-PVTZ-JKFIT
  @DF-UKS Final Energy: -1592.90067500426881
    Total Energy =                      -1592.9006750042688054
  Basis Set: AUG-CC-PVTZ
    Blend: AUG-CC-PVTZ
  Basis Set: (AUG-CC-PVTZ AUX)
    Blend: AUG-CC-PVTZ-JKFIT
  Basis Set: AUG-CC-PVTZ
    Blend: AUG-CC-PVTZ
  @DF-UKS Final Energy: -1592.90085902385908
    Total Energy =                      -1592.9008590238593115
  @DF-UKS Final Energy: -1592.90086982111234
    Total Energy =                      -1592.9008698211123374
  @DF-UKS Final Energy: -1592.90087174796145
    Total Energy =                      -1592.9008717479612187
  @DF-UKS Final Energy: -1592.90087174759901
    Total Energy =                      -1592.9008717475990125
  @DF-UKS Final Energy: -1592.90087173797838
    Total Energy =                      -1592.9008717379781501
  **** Optimization is complete! (in 7 steps) ****
    Final optimized geometry and variables:
  @DF-UKS Final Energy: -1592.90087173879533
    Total Energy =                      -1592.9008717387951037
  @DF-UKS Final Energy: -1592.90087173841994
    Total Energy =                      -1592.9008717384199372
  @DF-UKS Final Energy: -1592.90087157947869
    Total Energy =                      -1592.9008715794782347
  @DF-UKS Final Energy: -1592.90087167213642
    Total Energy =                      -1592.9008716721364181
  @DF-UKS Final Energy: -1592.90087161345878
    Total Energy =                      -1592.9008716134587758
  @DF-UKS Final Energy: -1592.90087162725945
    Total Energy =                      -1592.9008716272594484
  @DF-UKS Final Energy: -1592.90087163231419
    Total Energy =                      -1592.9008716323139652
  @DF-UKS Final Energy: -1592.90087170085781
    Total Energy =                      -1592.9008717008580334
  @DF-UKS Final Energy: -1592.90087173861866
    Total Energy =                      -1592.9008717386186618
  Basis Set: (AUG-CC-PVTZ AUX)
    Blend: AUG-CC-PVTZ-JKFIT
  Basis Set: AUG-CC-PVTZ
    Blend: AUG-CC-PVTZ
  Basis Set: (AUG-CC-PVTZ AUX)
    Blend: AUG-CC-PVTZ-JKFIT
  @DF-UKS Final Energy: -1592.90087162612031
    Total Energy =                      -1592.9008716261200789
  Basis Set: AUG-CC-PVTZ
    Blend: AUG-CC-PVTZ
  Basis Set: (AUG-CC-PVTZ AUX)
    Blend: AUG-CC-PVTZ-JKFIT
    Molecular point group: cs
  Charge       = -1
  Multiplicity = 2
  Basis Set: AUG-CC-PVTZ
    Blend: AUG-CC-PVTZ
  Basis Set: (AUG-CC-PVTZ AUX)
    Blend: AUG-CC-PVTZ-JKFIT

    Orbital Energies [Eh]
    ---------------------

    Alpha Occupied:

       1Ap   -88.960895     2Ap   -88.960864     3Ap   -88.876570
       4Ap   -88.876541     5Ap    -7.964601     6Ap    -7.964529
       7Ap    -7.884877     8Ap    -7.884843     9Ap    -5.913571
      10Ap    -5.913360    11Ap    -5.909551    12Ap    -5.909505
       1App   -5.909423     2App   -5.909385    13Ap    -5.835954
      14Ap    -5.835921     3App   -5.828844     4App   -5.828806
      15Ap    -5.826918    16Ap    -5.826884    17Ap    -0.785513
      18Ap    -0.704597    19Ap    -0.577081    20Ap    -0.506574
      21Ap    -0.341801    22Ap    -0.314632     5App   -0.309732
      23Ap    -0.252060     6App   -0.238404    24Ap    -0.182132
      25Ap    -0.145604     7App   -0.145255     8App   -0.114351

    Alpha Virtual:

      26Ap     0.154008    27Ap     0.165806    28Ap     0.174795
      29Ap     0.184425    30Ap     0.194524     9App    0.211566
      31Ap     0.213629    32Ap     0.219943    10App    0.226287
      11App    0.232910    33Ap     0.241866    34Ap     0.245333
      35Ap     0.251093    36Ap     0.252989    12App    0.254850
      37Ap     0.286422    38Ap     0.327237    39Ap     0.337021
      13App    0.344600    40Ap     0.345101    14App    0.362197
      41Ap     0.396014    42Ap     0.404596    15App    0.424047
      43Ap     0.425087    44Ap     0.430118    16App    0.431558
      45Ap     0.437731    46Ap     0.451108    17App    0.456899
      47Ap     0.492230    18App    0.500218    48Ap     0.503296
      49Ap     0.519790    19App    0.532930    20App    0.533335
      50Ap     0.536351    51Ap     0.568578    52Ap     0.591908
      21App    0.614075    22App    0.678334    53Ap     0.687993
      54Ap     0.698796    23App    0.704404    55Ap     0.714950
      24App    0.716850    56Ap     0.719690    25App    0.726454
      57Ap     0.733874    58Ap     0.735480    59Ap     0.739787
      26App    0.744651    60Ap     0.761564    61Ap     0.765718
      62Ap     0.787727    27App    0.790114    63Ap     0.795304
      28App    0.820721    29App    0.823252    64Ap     0.823343
      65Ap     0.837256    66Ap     0.842260    67Ap     0.852927
      30App    0.867951    31App    0.898280    68Ap     0.901734
      32App    0.918780    69Ap     0.926584    33App    0.946779
      34App    0.948896    70Ap     0.957673    71Ap     0.961543
      72Ap     0.981096    73Ap     0.992158    35App    0.999465
      74Ap     1.003102    75Ap     1.015533    36App    1.070733
      76Ap     1.101156    77Ap     1.157309    37App    1.173837
      78Ap     1.178987    38App    1.190424    39App    1.193306
      79Ap     1.211936    80Ap     1.217226    40App    1.266080
      81Ap     1.290870    82Ap     1.300784    83Ap     1.326973
      41App    1.342327    84Ap     1.347949    42App    1.359946
      43App    1.389054    85Ap     1.391611    44App    1.409328
      86Ap     1.414869    87Ap     1.472535    88Ap     1.541391
      89Ap     1.547108    90Ap     1.589811    91Ap     1.683247
      92Ap     1.709175    45App    1.987279    93Ap     1.987795
      46App    2.014726    94Ap     2.032035    47App    2.038463
      95Ap     2.043070    96Ap     2.045739    48App    2.064326
      49App    2.072157    97Ap     2.078164    98Ap     2.085244
      99Ap     2.102352    50App    2.115109    51App    2.157092
     100Ap     2.169733   101Ap     2.171106    52App    2.182118
      53App    2.205289   102Ap     2.208755    54App    2.218165
     103Ap     2.220350    55App    2.221360   104Ap     2.238841
      56App    2.248492    57App    2.248774   105Ap     2.276547
     106Ap     2.306282   107Ap     2.333740    58App    2.342855
     108Ap     2.362201   109Ap     2.364668   110Ap     2.368600
      59App    2.370185   111Ap     2.399619    60App    2.414213
      61App    2.423448    62App    2.460629   112Ap     2.468272
     113Ap     2.473120   114Ap     2.506004    63App    2.510260
     115Ap     2.511822    64App    2.520991    65App    2.536865
     116Ap     2.544763   117Ap     2.593004   118Ap     2.597355
     119Ap     2.629767   120Ap     2.689173    66App    2.713793
     121Ap     2.748562   122Ap     2.755774    67App    2.791329
      68App    2.807051   123Ap     2.861136   124Ap     2.891894
     125Ap     2.904183   126Ap     3.820034   127Ap     3.878669
     128Ap     3.920151   129Ap     5.066700   130Ap     5.428724
     131Ap     5.821478   132Ap     5.980461

    Beta Occupied:

       1Ap   -88.958828     2Ap   -88.958798     3Ap   -88.875563
       4Ap   -88.875536     5Ap    -7.962460     6Ap    -7.962375
       7Ap    -7.883796     8Ap    -7.883762     9Ap    -5.912204
      10Ap    -5.911989    11Ap    -5.908201    12Ap    -5.908157
       1App   -5.902233     2App   -5.902197    13Ap    -5.835387
      14Ap    -5.835356    15Ap    -5.826214    16Ap    -5.826181
       3App   -5.825134     4App   -5.825100    17Ap    -0.776392
      18Ap    -0.696202    19Ap    -0.568813    20Ap    -0.488644
      21Ap    -0.335586    22Ap    -0.309552     5App   -0.282895
      23Ap    -0.246233     6App   -0.211459    24Ap    -0.178697
      25Ap    -0.142736     7App   -0.104385

    Beta Virtual:

       8App    0.081441    26Ap     0.155644    27Ap     0.168763
      28Ap     0.176038    29Ap     0.187714    30Ap     0.195708
       9App    0.212801    31Ap     0.216904    32Ap     0.220266
      10App    0.229865    11App    0.235723    33Ap     0.244633
      34Ap     0.245990    35Ap     0.251798    36Ap     0.254223
      12App    0.257136    37Ap     0.287544    38Ap     0.327073
      39Ap     0.337613    40Ap     0.345733    13App    0.349415
      14App    0.367448    41Ap     0.396926    42Ap     0.406472
      15App    0.427322    43Ap     0.427374    44Ap     0.431533
      16App    0.438839    45Ap     0.440569    46Ap     0.453780
      17App    0.460882    47Ap     0.492794    18App    0.504105
      48Ap     0.504248    49Ap     0.520944    19App    0.534821
      20App    0.537005    50Ap     0.537440    51Ap     0.569427
      52Ap     0.593486    21App    0.618912    22App    0.680911
      53Ap     0.688507    54Ap     0.699592    23App    0.707855
      55Ap     0.716084    56Ap     0.722646    24App    0.723650
      25App    0.731873    57Ap     0.735241    58Ap     0.737513
      59Ap     0.740632    26App    0.751435    60Ap     0.763177
      61Ap     0.767333    62Ap     0.789589    27App    0.793352
      63Ap     0.799675    64Ap     0.824263    28App    0.825913
      29App    0.826660    65Ap     0.842695    66Ap     0.849842
      67Ap     0.859080    30App    0.875672    68Ap     0.904110
      31App    0.906923    32App    0.927241    69Ap     0.928344
      33App    0.950355    34App    0.951990    70Ap     0.959696
      71Ap     0.965474    72Ap     0.983718    73Ap     0.995446
      35App    1.000917    74Ap     1.004678    75Ap     1.017118
      36App    1.072643    76Ap     1.103444    77Ap     1.159316
      37App    1.177185    78Ap     1.180691    38App    1.193538
      39App    1.196137    79Ap     1.213651    80Ap     1.219986
      40App    1.268498    81Ap     1.291737    82Ap     1.301728
      83Ap     1.329924    41App    1.345042    84Ap     1.349107
      42App    1.365364    43App    1.393317    85Ap     1.394127
      44App    1.414564    86Ap     1.417985    87Ap     1.473215
      88Ap     1.542662    89Ap     1.551530    90Ap     1.595730
      91Ap     1.689452    92Ap     1.717677    93Ap     1.994027
      45App    1.995082    46App    2.023068    94Ap     2.037755
      47App    2.043927    95Ap     2.046758    96Ap     2.051761
      48App    2.070433    49App    2.078813    97Ap     2.083297
      98Ap     2.086713    99Ap     2.104345    50App    2.124689
      51App    2.168711   100Ap     2.174283   101Ap     2.175494
      52App    2.192123   102Ap     2.214030    53App    2.215602
     103Ap     2.225184    54App    2.227510    55App    2.228627
     104Ap     2.243773    56App    2.257144    57App    2.265208
     105Ap     2.278643   106Ap     2.309715   107Ap     2.335563
      58App    2.349399   108Ap     2.364175   109Ap     2.370559
     110Ap     2.372677    59App    2.377342   111Ap     2.405470
      60App    2.419107    61App    2.436500    62App    2.468596
     112Ap     2.473622   113Ap     2.478229   114Ap     2.509497
      63App    2.517781   115Ap     2.517984    64App    2.530935
      65App    2.544554   116Ap     2.551737   117Ap     2.598553
     118Ap     2.602074   119Ap     2.632984   120Ap     2.691231
      66App    2.725838   121Ap     2.752450   122Ap     2.758565
      67App    2.800256    68App    2.815912   123Ap     2.862910
     124Ap     2.893462   125Ap     2.906371   126Ap     3.823140
     127Ap     3.881026   128Ap     3.922590   129Ap     5.071159
     130Ap     5.431873   131Ap     5.825419   132Ap     5.985245

    Final Occupation by Irrep:
             Ap   App
    DOCC [    25,    7 ]
    SOCC [     0,    1 ]

  @DF-UKS Final Energy: -1592.90087171983646

   => Energetics <=

    Nuclear Repulsion Energy =            310.5501531105680897
    One-Electron Energy =               -2830.6476719320162374
    Two-Electron Energy =                1002.3284385972731343
    DFT Exchange-Correlation Energy =     -75.1312587134145957
    Empirical Dispersion Energy =          -0.0005327822467842
    VV10 Nonlocal Energy =                  0.0000000000000000
    Total Energy =                      -1592.9008717198362319

  UHF NO Occupations:
  HONO-2 :    6App 1.9995015
  HONO-1 :    7App 1.9986057
  HONO-0 :    8App 1.0000000
  LUNO+0 :    9App 0.0013943
  LUNO+1 :   10App 0.0004985
  LUNO+2 :   11App 0.0004177
  LUNO+3 :   26 Ap 0.0002606

Computation Completed

Properties will be evaluated at   0.000000,   0.000000,   0.000000 [a0]

Properties computed using the SCF density matrix

  Nuclear Dipole Moment: [e a0]
     X:     0.0000      Y:    -0.0000      Z:     0.0000

  Electronic Dipole Moment: [e a0]
     X:     0.0006      Y:    -0.0011      Z:     0.0000

  Dipole Moment: [e a0]
     X:     0.0006      Y:    -0.0011      Z:     0.0000     Total:     0.0012

  Dipole Moment: [D]
     X:     0.0015      Y:    -0.0027      Z:     0.0000     Total:     0.0031

*** tstop() called on b1-21.compute.lan at Thu Feb 11 14:44:52 2021
Module time:
	user time   =     150.56 seconds =       2.51 minutes
	system time =       0.18 seconds =       0.00 minutes
	total time  =        151 seconds =       2.52 minutes
Total time:
	user time   =    2725.92 seconds =      45.43 minutes
	system time =       4.34 seconds =       0.07 minutes
	total time  =       2733 seconds =      45.55 minutes

*** tstart() called on b1-21.compute.lan
*** at Thu Feb 11 14:44:52 2021

         ------------------------------------------------------------
                                   SCF GRAD
                          Rob Parrish, Justin Turney,
                       Andy Simmonett, and Alex Sokolov
         ------------------------------------------------------------

  ==> Geometry <==

    Molecular point group: cs
    Full point group: Cs

    Geometry (in Angstrom), charge = -1, multiplicity = 2:

       Center              X                  Y                   Z               Mass
    ------------   -----------------  -----------------  -----------------  -----------------
         S            0.000000000000     1.037873391990     0.000000000000    31.972071174400
         S            0.000000000000    -1.038341327229     0.000000000000    31.972071174400
         S           -1.904616238179     1.634676709066     0.000000000000    31.972071174400
         S            1.904616238179    -1.634208773828     0.000000000000    31.972071174400

  Nuclear repulsion =  310.550153110568090

  ==> Basis Set <==

  Basis Set: AUG-CC-PVTZ
    Blend: AUG-CC-PVTZ
    Number of shells: 64
    Number of basis function: 200
    Number of Cartesian functions: 236
    Spherical Harmonics?: true
    Max angular momentum: 3

  ==> DFJKGrad: Density-Fitted SCF Gradients <==

    Gradient:                    1
    J tasked:                  Yes
    K tasked:                  Yes
    wK tasked:                 Yes
    Omega:               2.000E-01
    OpenMP threads:              1
    Integrals threads:           1
    Memory [MiB]:            11444
    Schwarz Cutoff:          0E+00
    Fitting Condition:       1E-10

   => Auxiliary Basis Set <=

  Basis Set: (AUG-CC-PVTZ AUX)
    Blend: AUG-CC-PVTZ-JKFIT
    Number of shells: 168
    Number of basis function: 584
    Number of Cartesian functions: 720
    Spherical Harmonics?: true
    Max angular momentum: 4

  ==> DFT Potential <==

   => Composite Functional: WB97X-D <=

    wB97X-D Hyb-GGA Exchange-Correlation Functional

    J.-D. Chai and M. Head-Gordon, Phys. Chem. Chem. Phys. 10, 6615 (2008)

    Deriv               =              1
    GGA                 =           TRUE
    Meta                =          FALSE

    Exchange Hybrid     =           TRUE
    MP2 Hybrid          =          FALSE

   => Exchange-Correlation Functionals <=

    1.0000   wB97D range-separated functional

   => Exact (HF) Exchange <=

    0.7780            HF,LR [omega = 0.2000]
    0.2220               HF

   => Molecular Quadrature <=

    Radial Scheme          =       TREUTLER
    Pruning Scheme         =           NONE
    Nuclear Scheme         =       TREUTLER

    BS radius alpha        =              1
    Pruning alpha          =              1
    Radial Points          =             99
    Spherical Points       =            590
    Total Points           =         225728
    Total Blocks           =           1858
    Max Points             =            256
    Max Functions          =            200
    Weights Tolerance      =       1.00E-15

  -Total Gradient:
     Atom            X                  Y                   Z
    ------   -----------------  -----------------  -----------------
       1        0.000055499184    -0.000024507255     0.000000000000
       2        0.000033134657    -0.000023952862     0.000000000000
       3       -0.000026855758     0.000043863949     0.000000000000
       4       -0.000061982933     0.000004548231     0.000000000000

*** tstop() called on b1-21.compute.lan at Thu Feb 11 14:45:24 2021
Module time:
	user time   =      31.39 seconds =       0.52 minutes
	system time =       0.10 seconds =       0.00 minutes
	total time  =         32 seconds =       0.53 minutes
Total time:
	user time   =    2757.31 seconds =      45.96 minutes
	system time =       4.44 seconds =       0.07 minutes
	total time  =       2765 seconds =      46.08 minutes

         ----------------------------------------------------------
                                   FINDIF
                     R. A. King and Jonathon Misiewicz
         ---------------------------------------------------------

  Computing second-derivative from gradients using projected,
  symmetry-adapted, cartesian coordinates.

  10 gradients passed in, including the reference geometry.
  Generating complete list of displacements from unique ones.

    Operation 3 takes plus displacements of irrep Au to minus ones.
    Operation 2 takes plus displacements of irrep Bu to minus ones.

-------------------------------------------------------------

  ==> Harmonic Vibrational Analysis <==

  non-mass-weighted Hessian:       Symmetric? True   Hermitian? True   Lin Dep Dim?  6 (0)
  projection of translations (True) and rotations (True) removed 6 degrees of freedom (6)
  total projector:                 Symmetric? True   Hermitian? True   Lin Dep Dim?  6 (6)
  mass-weighted Hessian:           Symmetric? True   Hermitian? True   Lin Dep Dim?  6 (0)
  pre-proj  low-frequency mode:    0.0000i [cm^-1]
  pre-proj  low-frequency mode:    0.0000i [cm^-1]
  pre-proj  low-frequency mode:    0.0000i [cm^-1]
  pre-proj  low-frequency mode:    0.0000i [cm^-1]
  pre-proj  low-frequency mode:    0.0000i [cm^-1]
  pre-proj  low-frequency mode:    0.0000  [cm^-1]
  pre-proj  low-frequency mode:   63.6861  [cm^-1]
  pre-proj  all modes:['0.0000i' '0.0000i' '0.0000i' '0.0000i' '0.0000i' '0.0000' '63.6861'
 '121.7653' '217.6840' '507.3256' '519.2517' '583.3796']
  projected mass-weighted Hessian: Symmetric? True   Hermitian? True   Lin Dep Dim?  6 (6)
  post-proj low-frequency mode:    0.0000i [cm^-1] (TR)
  post-proj low-frequency mode:    0.0000i [cm^-1] (TR)
  post-proj low-frequency mode:    0.0000  [cm^-1] (TR)
  post-proj low-frequency mode:    0.0000  [cm^-1] (TR)
  post-proj low-frequency mode:    0.0000  [cm^-1] (TR)
  post-proj low-frequency mode:    0.0000  [cm^-1] (TR)
  post-proj low-frequency mode:   63.6861  [cm^-1] (V)
  post-proj  all modes:['0.0000i' '0.0000i' '0.0000' '0.0000' '0.0000' '0.0000' '63.6861'
 '121.7653' '217.6840' '507.3256' '519.2517' '583.3796']

  Vibration                       7                   8                   9
  Freq [cm^-1]                 63.6861             121.7653            217.6840
  Irrep                           Au                  Bu                  Ag
  Reduced mass [u]             31.9721             31.9721             31.9721
  Force const [mDyne/A]         0.0764              0.2793              0.8926
  Turning point v=0 [a0]        0.2432              0.1759              0.1315
  RMS dev v=0 [a0 u^1/2]        0.9722              0.7031              0.5259
  Char temp [K]                91.6301             175.1932            313.1989
  ----------------------------------------------------------------------------------
      1   S                0.00  0.00  0.50    0.17  0.47  0.00   -0.38  0.14  0.00
      2   S                0.00  0.00  0.50    0.17  0.47 -0.00    0.38 -0.14 -0.00
      3   S                0.00 -0.00 -0.50   -0.17 -0.47  0.00   -0.32  0.48  0.00
      4   S                0.00 -0.00 -0.50   -0.17 -0.47  0.00    0.32 -0.48 -0.00

  Vibration                       10                  11                  12
  Freq [cm^-1]                 507.3256            519.2517            583.3796
  Irrep                           Ag                  Bu                  Ag
  Reduced mass [u]             31.9721             31.9721             31.9721
  Force const [mDyne/A]         4.8484              5.0790              6.4110
  Turning point v=0 [a0]        0.0862              0.0852              0.0803
  RMS dev v=0 [a0 u^1/2]        0.3445              0.3405              0.3212
  Char temp [K]                729.9286            747.0876            839.3533
  ----------------------------------------------------------------------------------
      1   S                0.11  0.69 -0.00    0.47 -0.17 -0.00    0.52 -0.05  0.00
      2   S               -0.11 -0.69 -0.00    0.47 -0.17  0.00   -0.52  0.05 -0.00
      3   S                0.03 -0.09 -0.00   -0.47  0.17  0.00   -0.46  0.11 -0.00
      4   S               -0.03  0.09  0.00   -0.47  0.17 -0.00    0.46 -0.11  0.00

  ==> Thermochemistry Components <==

  Entropy, S
    Electronic S            1.377 [cal/(mol K)]        5.763 [J/(mol K)]       0.00219507 [mEh/K] (multiplicity = 2)
    Translational S        40.451 [cal/(mol K)]      169.248 [J/(mol K)]       0.06446314 [mEh/K] (mol. weight = 127.8883 [u], P = 101325.00 [Pa])
    Rotational S           25.954 [cal/(mol K)]      108.592 [J/(mol K)]       0.04136035 [mEh/K] (symmetry no. = 2)
    Vibrational S          11.121 [cal/(mol K)]       46.530 [J/(mol K)]       0.01772229 [mEh/K]
  Total S                  78.904 [cal/(mol K)]      330.133 [J/(mol K)]       0.12574085 [mEh/K]
  Correction S              0.000 [cal/(mol K)]        0.000 [J/(mol K)]       0.00000000 [mEh/K]

  Constant volume heat capacity, Cv
    Electronic Cv           0.000 [cal/(mol K)]        0.000 [J/(mol K)]       0.00000000 [mEh/K]
    Translational Cv        2.981 [cal/(mol K)]       12.472 [J/(mol K)]       0.00475022 [mEh/K]
    Rotational Cv           2.981 [cal/(mol K)]       12.472 [J/(mol K)]       0.00475022 [mEh/K]
    Vibrational Cv          9.225 [cal/(mol K)]       38.598 [J/(mol K)]       0.01470123 [mEh/K]
  Total Cv                 15.187 [cal/(mol K)]       63.541 [J/(mol K)]       0.02420166 [mEh/K]
  Correction Cv             0.000 [cal/(mol K)]        0.000 [J/(mol K)]       0.00000000 [mEh/K]

  Constant pressure heat capacity, Cp
    Electronic Cp           0.000 [cal/(mol K)]        0.000 [J/(mol K)]       0.00000000 [mEh/K]
    Translational Cp        4.968 [cal/(mol K)]       20.786 [J/(mol K)]       0.00791703 [mEh/K]
    Rotational Cp           2.981 [cal/(mol K)]       12.472 [J/(mol K)]       0.00475022 [mEh/K]
    Vibrational Cp          9.225 [cal/(mol K)]       38.598 [J/(mol K)]       0.01470123 [mEh/K]
  Total Cp                 17.174 [cal/(mol K)]       71.856 [J/(mol K)]       0.02736847 [mEh/K]
  Correction Cp             0.000 [cal/(mol K)]        0.000 [J/(mol K)]       0.00000000 [mEh/K]

  ==> Thermochemistry Energy Analysis <==

  Raw electronic energy, E0
  Total E0, Electronic energy at well bottom at 0 [K]                -1592.90087174 [Eh]

  Zero-point energy, ZPE_vib = Sum_i nu_i / 2
    Electronic ZPE          0.000 [kcal/mol]        0.000 [kJ/mol]       0.00000000 [Eh]
    Translational ZPE       0.000 [kcal/mol]        0.000 [kJ/mol]       0.00000000 [Eh]
    Rotational ZPE          0.000 [kcal/mol]        0.000 [kJ/mol]       0.00000000 [Eh]
    Vibrational ZPE         2.878 [kcal/mol]       12.041 [kJ/mol]       0.00458616 [Eh]        1006.546 [cm^-1]
  Correction ZPE            2.878 [kcal/mol]       12.041 [kJ/mol]       0.00458616 [Eh]        1006.546 [cm^-1]
  Total ZPE, Electronic energy at 0 [K]                              -1592.89628558 [Eh]

  Thermal Energy, E (includes ZPE)
    Electronic E            0.000 [kcal/mol]        0.000 [kJ/mol]       0.00000000 [Eh]
    Translational E         0.889 [kcal/mol]        3.718 [kJ/mol]       0.00141628 [Eh]
    Rotational E            0.889 [kcal/mol]        3.718 [kJ/mol]       0.00141628 [Eh]
    Vibrational E           4.530 [kcal/mol]       18.952 [kJ/mol]       0.00721834 [Eh]
  Correction E              6.307 [kcal/mol]       26.389 [kJ/mol]       0.01005089 [Eh]
  Total E, Electronic energy at  298.15 [K]                          -1592.89082084 [Eh]

  Enthalpy, H_trans = E_trans + k_B * T
    Electronic H            0.000 [kcal/mol]        0.000 [kJ/mol]       0.00000000 [Eh]
    Translational H         1.481 [kcal/mol]        6.197 [kJ/mol]       0.00236046 [Eh]
    Rotational H            0.889 [kcal/mol]        3.718 [kJ/mol]       0.00141628 [Eh]
    Vibrational H           4.530 [kcal/mol]       18.952 [kJ/mol]       0.00721834 [Eh]
  Correction H              6.900 [kcal/mol]       28.868 [kJ/mol]       0.01099508 [Eh]
  Total H, Enthalpy at  298.15 [K]                                   -1592.88987666 [Eh]

  Gibbs free energy, G = H - T * S
    Electronic G           -0.411 [kcal/mol]       -1.718 [kJ/mol]      -0.00065446 [Eh]
    Translational G       -10.579 [kcal/mol]      -44.264 [kJ/mol]      -0.01685922 [Eh]
    Rotational G           -6.849 [kcal/mol]      -28.658 [kJ/mol]      -0.01091531 [Eh]
    Vibrational G           1.214 [kcal/mol]        5.079 [kJ/mol]       0.00193444 [Eh]
  Correction G            -16.626 [kcal/mol]      -69.561 [kJ/mol]      -0.02649456 [Eh]
  Total G, Free enthalpy at  298.15 [K]                              -1592.92736629 [Eh]

*** Psi4 exiting successfully. Buy a developer a beer!
