                               Psi4 1.4a2.dev191

  ==> Input File <==

--------------------------------------------------------------------------
memory 16 GB

molecule  {
-2 1
S
S 1 r1
S 1 r2 2 a1
S 2 r3 1 a2 3 d1
r1 = 2.051
r2 = 2.024
r3 = 2.024
a1 = 105.1
a2 = 105.1
d1 = 180.0
}

set {
reference uks
basis aug-cc-pvtz
g_convergence gau_verytight
dft_spherical_points 590
dft_radial_points 99
}

optimize('wb97m-v')
frequencies('wb97m-v')

--------------------------------------------------------------------------

    Molecular point group: c2h
  Charge       = -2
  Multiplicity = 1
  Basis Set: AUG-CC-PVTZ
    Blend: AUG-CC-PVTZ
  Basis Set: (AUG-CC-PVTZ AUX)
    Blend: AUG-CC-PVTZ-JKFIT
  @DF-UKS Final Energy: -1592.76361070451208
    Total Energy =                      -1592.7636107045123026
    Molecular point group: c2h
  Basis Set: AUG-CC-PVTZ
    Blend: AUG-CC-PVTZ
  Basis Set: (AUG-CC-PVTZ AUX)
    Blend: AUG-CC-PVTZ-JKFIT
  @DF-UKS Final Energy: -1592.76357948344457
    Total Energy =                      -1592.7635794834445733
  Basis Set: AUG-CC-PVTZ
    Blend: AUG-CC-PVTZ
  Basis Set: (AUG-CC-PVTZ AUX)
    Blend: AUG-CC-PVTZ-JKFIT
  @DF-UKS Final Energy: -1592.76364171420073
    Total Energy =                      -1592.7636417142009577
  Basis Set: AUG-CC-PVTZ
    Blend: AUG-CC-PVTZ
  Basis Set: (AUG-CC-PVTZ AUX)
    Blend: AUG-CC-PVTZ-JKFIT
  @DF-UKS Final Energy: -1592.76357682480784
    Total Energy =                      -1592.7635768248073873
  @DF-UKS Final Energy: -1592.76364426824603
    Total Energy =                      -1592.7636442682464804
  @DF-UKS Final Energy: -1592.76363443679566
    Total Energy =                      -1592.7636344367954280
  @DF-UKS Final Energy: -1592.76358682721639
    Total Energy =                      -1592.7635868272161588
  @DF-UKS Final Energy: -1592.76784854192033
    Total Energy =                      -1592.7678485419203298
  @DF-UKS Final Energy: -1592.76783721782340
    Total Energy =                      -1592.7678372178236259
  @DF-UKS Final Energy: -1592.76785967666456
    Total Energy =                      -1592.7678596766643295
  @DF-UKS Final Energy: -1592.76783527256930
    Total Energy =                      -1592.7678352725695277
  @DF-UKS Final Energy: -1592.76786156207322
    Total Energy =                      -1592.7678615620734490
  @DF-UKS Final Energy: -1592.76785785124230
    Total Energy =                      -1592.7678578512425247
  @DF-UKS Final Energy: -1592.76783911222492
    Total Energy =                      -1592.7678391122249195
  @DF-UKS Final Energy: -1592.76870811782192
    Total Energy =                      -1592.7687081178216886
  @DF-UKS Final Energy: -1592.76870710629601
    Total Energy =                      -1592.7687071062955511
  @DF-UKS Final Energy: -1592.76870895152001
    Total Energy =                      -1592.7687089515202388
  @DF-UKS Final Energy: -1592.76870511619677
    Total Energy =                      -1592.7687051161967702
  @DF-UKS Final Energy: -1592.76871090371105
    Total Energy =                      -1592.7687109037108257
  @DF-UKS Final Energy: -1592.76870890831924
    Total Energy =                      -1592.7687089083194678
  **** Optimization is complete! (in 15 steps) ****
    Final optimized geometry and variables:
  @DF-UKS Final Energy: -1592.76873633168771
    Total Energy =                      -1592.7687363316877054
  @DF-UKS Final Energy: -1592.76873633106061
    Total Energy =                      -1592.7687363310606088
  @DF-UKS Final Energy: -1592.76873638595862
    Total Energy =                      -1592.7687363859586185
  @DF-UKS Final Energy: -1592.76873629665033
    Total Energy =                      -1592.7687362966501041
  @DF-UKS Final Energy: -1592.76873629592455
    Total Energy =                      -1592.7687362959245547
  @DF-UKS Final Energy: -1592.76873628491421
    Total Energy =                      -1592.7687362849142119
  @DF-UKS Final Energy: -1592.76873628287149
    Total Energy =                      -1592.7687362828710320
  @DF-UKS Final Energy: -1592.76873633169316
    Total Energy =                      -1592.7687363316931624
  @DF-UKS Final Energy: -1592.76873633106607
    Total Energy =                      -1592.7687363310658384
  @DF-UKS Final Energy: -1592.76873616700368
    Total Energy =                      -1592.7687361670036807
  @DF-UKS Final Energy: -1592.76873616857233
    Total Energy =                      -1592.7687361685725591
  @DF-UKS Final Energy: -1592.76873633755258
    Total Energy =                      -1592.7687363375525820
  @DF-UKS Final Energy: -1592.76873634024764
    Total Energy =                      -1592.7687363402476421
  @DF-UKS Final Energy: -1592.76873620381843
    Total Energy =                      -1592.7687362038182073
  @DF-UKS Final Energy: -1592.76873620443303
    Total Energy =                      -1592.7687362044330257
  @DF-UKS Final Energy: -1592.76873638437291
    Total Energy =                      -1592.7687363843729145
  Basis Set: AUG-CC-PVTZ
    Blend: AUG-CC-PVTZ
  Basis Set: (AUG-CC-PVTZ AUX)
    Blend: AUG-CC-PVTZ-JKFIT
  @DF-UKS Final Energy: -1592.76873627190571
    Total Energy =                      -1592.7687362719054818
  Basis Set: AUG-CC-PVTZ
    Blend: AUG-CC-PVTZ
  Basis Set: (AUG-CC-PVTZ AUX)
    Blend: AUG-CC-PVTZ-JKFIT
  @DF-UKS Final Energy: -1592.76873636973164
    Total Energy =                      -1592.7687363697314140
  Multiplicity = 1
  Basis Set: AUG-CC-PVTZ
    Blend: AUG-CC-PVTZ
  Basis Set: (AUG-CC-PVTZ AUX)
    Blend: AUG-CC-PVTZ-JKFIT
  @DF-UKS Final Energy: -1592.76873631302578
    Total Energy =                      -1592.7687363130257836
    Molecular point group: cs

    Geometry (in Angstrom), charge = -2, multiplicity = 1:

       Center              X                  Y                   Z               Mass
    ------------   -----------------  -----------------  -----------------  -----------------
         S           -0.000233967619     1.076354480212     0.000000000000    31.972071174400
         S           -0.000233967619    -1.076822415450     0.000000000000    31.972071174400
         S           -2.019490198606     1.581299784491     0.000000000000    31.972071174400
         S            2.019958133845    -1.580831849252     0.000000000000    31.972071174400

  Charge       = -2
  Multiplicity = 1
  Basis Set: AUG-CC-PVTZ
    Blend: AUG-CC-PVTZ
  Basis Set: (AUG-CC-PVTZ AUX)
    Blend: AUG-CC-PVTZ-JKFIT

    Orbital Energies [Eh]
    ---------------------

    Alpha Occupied:

       1Ap   -88.913842     2Ap   -88.913834     3Ap   -88.855964
       4Ap   -88.855950     5Ap    -7.822118     6Ap    -7.822079
       7Ap    -7.767145     8Ap    -7.767142     9Ap    -5.733247
      10Ap    -5.733145    11Ap    -5.730158    12Ap    -5.730132
       1App   -5.723180     2App   -5.723176    13Ap    -5.679339
      14Ap    -5.679332    15Ap    -5.671619    16Ap    -5.671618
       3App   -5.670460     4App   -5.670457    17Ap    -0.594320
      18Ap    -0.521887    19Ap    -0.409575    20Ap    -0.349072
      21Ap    -0.157062    22Ap    -0.136577     5App   -0.118273
      23Ap    -0.077129     6App   -0.055446    24Ap    -0.017683
      25Ap     0.013681     7App    0.024303     8App    0.056335

    Alpha Virtual:

      26Ap     0.236252    27Ap     0.250679    28Ap     0.255850
      29Ap     0.287370    30Ap     0.308782     9App    0.311999
      31Ap     0.317056    10App    0.321916    11App    0.327719
      32Ap     0.337954    12App    0.347593    33Ap     0.362668
      34Ap     0.366165    35Ap     0.370800    36Ap     0.383289
      37Ap     0.391372    38Ap     0.455195    39Ap     0.458521
      40Ap     0.463951    13App    0.502626    14App    0.519185
      41Ap     0.544695    42Ap     0.546014    43Ap     0.563192
      15App    0.566095    44Ap     0.574725    45Ap     0.575919
      16App    0.576059    46Ap     0.590473    17App    0.604722
      47Ap     0.625441    48Ap     0.626515    18App    0.633631
      49Ap     0.645097    50Ap     0.656784    19App    0.662779
      20App    0.670838    51Ap     0.692561    52Ap     0.721370
      21App    0.776930    22App    0.838756    53Ap     0.840912
      54Ap     0.848028    23App    0.863679    55Ap     0.871216
      56Ap     0.872771    24App    0.880525    57Ap     0.881764
      58Ap     0.885977    25App    0.888194    59Ap     0.893979
      60Ap     0.901462    26App    0.911458    61Ap     0.929914
      62Ap     0.949305    63Ap     0.950793    27App    0.951473
      64Ap     0.974546    28App    0.974856    29App    0.990885
      65Ap     1.000283    66Ap     1.011343    67Ap     1.011511
      30App    1.037467    68Ap     1.048779    31App    1.059017
      69Ap     1.072132    32App    1.079850    33App    1.103557
      34App    1.103704    70Ap     1.107760    71Ap     1.112373
      72Ap     1.124444    73Ap     1.138092    35App    1.148728
      74Ap     1.151965    75Ap     1.158519    36App    1.218075
      76Ap     1.228561    77Ap     1.297714    78Ap     1.313983
      37App    1.318923    38App    1.331429    39App    1.336877
      79Ap     1.348245    80Ap     1.358125    40App    1.413264
      81Ap     1.424393    82Ap     1.438459    83Ap     1.471737
      84Ap     1.473372    41App    1.475435    42App    1.505812
      43App    1.530892    85Ap     1.531119    86Ap     1.545750
      44App    1.548236    87Ap     1.602436    88Ap     1.661289
      89Ap     1.669937    90Ap     1.717142    91Ap     1.817903
      92Ap     1.865801    45App    2.150830    93Ap     2.164010
      46App    2.185091    47App    2.189825    94Ap     2.190924
      95Ap     2.201772    96Ap     2.208017    48App    2.214351
      49App    2.237296    97Ap     2.241167    98Ap     2.257557
      99Ap     2.267063    50App    2.280547    51App    2.332533
     100Ap     2.347108   101Ap     2.351573   102Ap     2.369808
      52App    2.374620    53App    2.377109    54App    2.387417
      55App    2.395094   103Ap     2.398933   104Ap     2.409845
      56App    2.433122   105Ap     2.434670    57App    2.435540
     106Ap     2.471611   107Ap     2.487231    58App    2.503221
     108Ap     2.503501   109Ap     2.517171    59App    2.522997
     110Ap     2.535849   111Ap     2.559918    60App    2.571939
      61App    2.574840   112Ap     2.596233    62App    2.599855
     113Ap     2.612932   114Ap     2.623964    63App    2.644702
      64App    2.652808   115Ap     2.666530    65App    2.678174
     116Ap     2.682684   117Ap     2.727326   118Ap     2.727897
     119Ap     2.750597   120Ap     2.807176   121Ap     2.813275
     122Ap     2.819542    66App    2.837244    67App    2.894916
      68App    2.910711   123Ap     2.952366   124Ap     2.979137
     125Ap     3.016672   126Ap     3.868409   127Ap     3.952811
     128Ap     3.999335   129Ap     5.016981   130Ap     5.510918
     131Ap     5.925979   132Ap     6.205181

    Beta Occupied:

       1Ap   -88.913842     2Ap   -88.913834     3Ap   -88.855964
       4Ap   -88.855950     5Ap    -7.822118     6Ap    -7.822079
       7Ap    -7.767145     8Ap    -7.767142     9Ap    -5.733247
      10Ap    -5.733145    11Ap    -5.730158    12Ap    -5.730132
       1App   -5.723180     2App   -5.723176    13Ap    -5.679339
      14Ap    -5.679332    15Ap    -5.671619    16Ap    -5.671618
       3App   -5.670460     4App   -5.670457    17Ap    -0.594320
      18Ap    -0.521887    19Ap    -0.409575    20Ap    -0.349072
      21Ap    -0.157062    22Ap    -0.136577     5App   -0.118273
      23Ap    -0.077129     6App   -0.055446    24Ap    -0.017683
      25Ap     0.013681     7App    0.024303     8App    0.056335

    Beta Virtual:

      26Ap     0.236252    27Ap     0.250679    28Ap     0.255850
      29Ap     0.287370    30Ap     0.308782     9App    0.311999
      31Ap     0.317056    10App    0.321916    11App    0.327719
      32Ap     0.337954    12App    0.347593    33Ap     0.362668
      34Ap     0.366165    35Ap     0.370800    36Ap     0.383289
      37Ap     0.391372    38Ap     0.455195    39Ap     0.458521
      40Ap     0.463951    13App    0.502626    14App    0.519185
      41Ap     0.544695    42Ap     0.546014    43Ap     0.563192
      15App    0.566095    44Ap     0.574725    45Ap     0.575919
      16App    0.576059    46Ap     0.590473    17App    0.604722
      47Ap     0.625441    48Ap     0.626515    18App    0.633631
      49Ap     0.645097    50Ap     0.656784    19App    0.662779
      20App    0.670838    51Ap     0.692561    52Ap     0.721370
      21App    0.776930    22App    0.838756    53Ap     0.840912
      54Ap     0.848028    23App    0.863679    55Ap     0.871216
      56Ap     0.872771    24App    0.880525    57Ap     0.881764
      58Ap     0.885977    25App    0.888194    59Ap     0.893979
      60Ap     0.901462    26App    0.911458    61Ap     0.929914
      62Ap     0.949305    63Ap     0.950793    27App    0.951473
      64Ap     0.974546    28App    0.974856    29App    0.990885
      65Ap     1.000283    66Ap     1.011343    67Ap     1.011511
      30App    1.037467    68Ap     1.048779    31App    1.059017
      69Ap     1.072132    32App    1.079850    33App    1.103557
      34App    1.103704    70Ap     1.107760    71Ap     1.112373
      72Ap     1.124444    73Ap     1.138092    35App    1.148728
      74Ap     1.151965    75Ap     1.158519    36App    1.218075
      76Ap     1.228561    77Ap     1.297714    78Ap     1.313983
      37App    1.318923    38App    1.331429    39App    1.336877
      79Ap     1.348245    80Ap     1.358125    40App    1.413264
      81Ap     1.424393    82Ap     1.438459    83Ap     1.471737
      84Ap     1.473372    41App    1.475435    42App    1.505812
      43App    1.530892    85Ap     1.531119    86Ap     1.545750
      44App    1.548236    87Ap     1.602436    88Ap     1.661289
      89Ap     1.669937    90Ap     1.717142    91Ap     1.817903
      92Ap     1.865801    45App    2.150830    93Ap     2.164010
      46App    2.185091    47App    2.189825    94Ap     2.190924
      95Ap     2.201772    96Ap     2.208017    48App    2.214351
      49App    2.237296    97Ap     2.241167    98Ap     2.257557
      99Ap     2.267063    50App    2.280547    51App    2.332533
     100Ap     2.347108   101Ap     2.351573   102Ap     2.369808
      52App    2.374620    53App    2.377109    54App    2.387417
      55App    2.395094   103Ap     2.398933   104Ap     2.409845
      56App    2.433122   105Ap     2.434670    57App    2.435540
     106Ap     2.471611   107Ap     2.487231    58App    2.503221
     108Ap     2.503501   109Ap     2.517171    59App    2.522997
     110Ap     2.535849   111Ap     2.559918    60App    2.571939
      61App    2.574840   112Ap     2.596233    62App    2.599855
     113Ap     2.612932   114Ap     2.623964    63App    2.644702
      64App    2.652808   115Ap     2.666530    65App    2.678174
     116Ap     2.682684   117Ap     2.727326   118Ap     2.727897
     119Ap     2.750597   120Ap     2.807176   121Ap     2.813275
     122Ap     2.819542    66App    2.837244    67App    2.894916
      68App    2.910711   123Ap     2.952366   124Ap     2.979137
     125Ap     3.016672   126Ap     3.868409   127Ap     3.952811
     128Ap     3.999335   129Ap     5.016981   130Ap     5.510918
     131Ap     5.925979   132Ap     6.205181

    Final Occupation by Irrep:
             Ap   App
    DOCC [    25,    8 ]
    SOCC [     0,    0 ]

  @DF-UKS Final Energy: -1592.76873631335820

   => Energetics <=

    Nuclear Repulsion Energy =            300.6390387807705338
    One-Electron Energy =               -2822.2227745068475997
    Two-Electron Energy =                1007.8819169882386859
    DFT Exchange-Correlation Energy =     -79.3335845161397799
    Empirical Dispersion Energy =           0.0000000000000000
    VV10 Nonlocal Energy =                  0.2666669406197238
    Total Energy =                      -1592.7687363133586587

  UHF NO Occupations:
  HONO-2 :   23 Ap 2.0000000
  HONO-1 :   24 Ap 2.0000000
  HONO-0 :   25 Ap 2.0000000
  LUNO+0 :   26 Ap 0.0000000
  LUNO+1 :   27 Ap 0.0000000
  LUNO+2 :   28 Ap 0.0000000
  LUNO+3 :   29 Ap 0.0000000

Computation Completed

Properties will be evaluated at   0.000000,   0.000000,   0.000000 [a0]

Properties computed using the SCF density matrix

  Nuclear Dipole Moment: [e a0]
     X:     0.0000      Y:    -0.0000      Z:     0.0000

  Electronic Dipole Moment: [e a0]
     X:    -0.0007      Y:     0.0002      Z:     0.0000

  Dipole Moment: [e a0]
     X:    -0.0007      Y:     0.0002      Z:     0.0000     Total:     0.0007

  Dipole Moment: [D]
     X:    -0.0017      Y:     0.0006      Z:     0.0000     Total:     0.0018

*** tstop() called on b1-21.compute.lan at Fri Feb 12 00:20:36 2021
Module time:
	user time   =     496.02 seconds =       8.27 minutes
	system time =       0.18 seconds =       0.00 minutes
	total time  =        497 seconds =       8.28 minutes
Total time:
	user time   =   37220.15 seconds =     620.34 minutes
	system time =      16.81 seconds =       0.28 minutes
	total time  =      37248 seconds =     620.80 minutes

         ----------------------------------------------------------
                                   FINDIF
                     R. A. King and Jonathon Misiewicz
         ---------------------------------------------------------

  Computing second-derivative from energies using projected,
  symmetry-adapted, cartesian coordinates.

  18 energies passed in, including the reference geometry.
    Using 3-point formula.
    Energy without displacement: -1592.7687363860
    Check energies below for precision!
    0: -1        :     -1592.7687362967
    0: 1         :     -1592.7687362959
    1: -1        :     -1592.7687362849
    1: 1         :     -1592.7687362829
    2: -1        :     -1592.7687363317
    2: 1         :     -1592.7687363311
    0: 1, 1: 1   :     -1592.7687361670
    0: -1, 1: -1 :     -1592.7687361686
    0: 1, 2: 1   :     -1592.7687363376
    0: -1, 2: -1 :     -1592.7687363402
    1: 1, 2: 1   :     -1592.7687362038
    1: -1, 2: -1 :     -1592.7687362044
    3: -1        :     -1592.7687363844
    4: -1        :     -1592.7687362719
    5: -1        :     -1592.7687363697
    4: 1, 5: 1   :     -1592.7687363130
    4: -1, 5: -1 :     -1592.7687363134

-------------------------------------------------------------

  ==> Harmonic Vibrational Analysis <==

  non-mass-weighted Hessian:       Symmetric? True   Hermitian? True   Lin Dep Dim?  6 (0)
  projection of translations (True) and rotations (True) removed 6 degrees of freedom (6)
  total projector:                 Symmetric? True   Hermitian? True   Lin Dep Dim?  6 (6)
  mass-weighted Hessian:           Symmetric? True   Hermitian? True   Lin Dep Dim?  6 (0)
  pre-proj  low-frequency mode:    0.0000i [cm^-1]
  pre-proj  low-frequency mode:    0.0000i [cm^-1]
  pre-proj  low-frequency mode:    0.0000  [cm^-1]
  pre-proj  low-frequency mode:    0.0000  [cm^-1]
  pre-proj  low-frequency mode:    0.0000  [cm^-1]
  pre-proj  low-frequency mode:    0.0000  [cm^-1]
  pre-proj  low-frequency mode:   57.8976  [cm^-1]
  pre-proj  all modes:['0.0000i' '0.0000i' '0.0000' '0.0000' '0.0000' '0.0000' '57.8976'
 '133.2566' '187.8881' '471.4957' '507.5926' '512.9270']
  projected mass-weighted Hessian: Symmetric? True   Hermitian? True   Lin Dep Dim?  6 (6)
  post-proj low-frequency mode:    0.0000i [cm^-1] (TR)
  post-proj low-frequency mode:    0.0000i [cm^-1] (TR)
  post-proj low-frequency mode:    0.0000i [cm^-1] (TR)
  post-proj low-frequency mode:    0.0000  [cm^-1] (TR)
  post-proj low-frequency mode:    0.0000  [cm^-1] (TR)
  post-proj low-frequency mode:    0.0000  [cm^-1] (TR)
  post-proj low-frequency mode:   57.8976  [cm^-1] (V)
  post-proj  all modes:['0.0000i' '0.0000i' '0.0000i' '0.0000' '0.0000' '0.0000' '57.8976'
 '133.2566' '187.8881' '471.4957' '507.5926' '512.9270']

  Vibration                       7                   8                   9
  Freq [cm^-1]                 57.8976             133.2566            187.8881
  Irrep                           Au                  Bu                  Ag
  Reduced mass [u]             31.9721             31.9721             31.9721
  Force const [mDyne/A]         0.0631              0.3345              0.6650
  Turning point v=0 [a0]        0.2550              0.1681              0.1416
  RMS dev v=0 [a0 u^1/2]        1.0197              0.6721              0.5660
  Char temp [K]                83.3017             191.7266            270.3292
  ----------------------------------------------------------------------------------
      1   S                0.00  0.00  0.50    0.13  0.48 -0.00   -0.37  0.15  0.00
      2   S               -0.00  0.00  0.50    0.13  0.48  0.00    0.37 -0.15  0.00
      3   S                0.00  0.00 -0.50   -0.13 -0.48 -0.00   -0.35  0.47  0.00
      4   S               -0.00  0.00 -0.50   -0.13 -0.48 -0.00    0.35 -0.47 -0.00

  Vibration                       10                  11                  12
  Freq [cm^-1]                 471.4957            507.5926            512.9270
  Irrep                           Ag                  Bu                  Ag
  Reduced mass [u]             31.9721             31.9721             31.9721
  Force const [mDyne/A]         4.1877              4.8535              4.9560
  Turning point v=0 [a0]        0.0894              0.0861              0.0857
  RMS dev v=0 [a0 u^1/2]        0.3573              0.3444              0.3426
  Char temp [K]                678.3773            730.3128            737.9877
  ----------------------------------------------------------------------------------
      1   S               -0.02  0.68  0.00    0.48 -0.13 -0.00    0.54  0.13  0.00
      2   S                0.02 -0.68 -0.00    0.48 -0.13  0.00   -0.54 -0.13 -0.00
      3   S                0.16 -0.11  0.00   -0.48  0.13  0.00   -0.44  0.06 -0.00
      4   S               -0.16  0.11 -0.00   -0.48  0.13 -0.00    0.44 -0.06  0.00

  ==> Thermochemistry Components <==

  Entropy, S
    Electronic S            0.000 [cal/(mol K)]        0.000 [J/(mol K)]       0.00000000 [mEh/K] (multiplicity = 1)
    Translational S        40.451 [cal/(mol K)]      169.248 [J/(mol K)]       0.06446314 [mEh/K] (mol. weight = 127.8883 [u], P = 101325.00 [Pa])
    Rotational S           26.190 [cal/(mol K)]      109.581 [J/(mol K)]       0.04173720 [mEh/K] (symmetry no. = 2)
    Vibrational S          11.674 [cal/(mol K)]       48.844 [J/(mol K)]       0.01860372 [mEh/K]
  Total S                  78.316 [cal/(mol K)]      327.673 [J/(mol K)]       0.12480406 [mEh/K]
  Correction S              0.000 [cal/(mol K)]        0.000 [J/(mol K)]       0.00000000 [mEh/K]

  Constant volume heat capacity, Cv
    Electronic Cv           0.000 [cal/(mol K)]        0.000 [J/(mol K)]       0.00000000 [mEh/K]
    Translational Cv        2.981 [cal/(mol K)]       12.472 [J/(mol K)]       0.00475022 [mEh/K]
    Rotational Cv           2.981 [cal/(mol K)]       12.472 [J/(mol K)]       0.00475022 [mEh/K]
    Vibrational Cv          9.519 [cal/(mol K)]       39.826 [J/(mol K)]       0.01516908 [mEh/K]
  Total Cv                 15.480 [cal/(mol K)]       64.770 [J/(mol K)]       0.02466951 [mEh/K]
  Correction Cv             0.000 [cal/(mol K)]        0.000 [J/(mol K)]       0.00000000 [mEh/K]

  Constant pressure heat capacity, Cp
    Electronic Cp           0.000 [cal/(mol K)]        0.000 [J/(mol K)]       0.00000000 [mEh/K]
    Translational Cp        4.968 [cal/(mol K)]       20.786 [J/(mol K)]       0.00791703 [mEh/K]
    Rotational Cp           2.981 [cal/(mol K)]       12.472 [J/(mol K)]       0.00475022 [mEh/K]
    Vibrational Cp          9.519 [cal/(mol K)]       39.826 [J/(mol K)]       0.01516908 [mEh/K]
  Total Cp                 17.468 [cal/(mol K)]       73.084 [J/(mol K)]       0.02783632 [mEh/K]
  Correction Cp             0.000 [cal/(mol K)]        0.000 [J/(mol K)]       0.00000000 [mEh/K]

  ==> Thermochemistry Energy Analysis <==

  Raw electronic energy, E0
  Total E0, Electronic energy at well bottom at 0 [K]                -1592.76873639 [Eh]

  Zero-point energy, ZPE_vib = Sum_i nu_i / 2
    Electronic ZPE          0.000 [kcal/mol]        0.000 [kJ/mol]       0.00000000 [Eh]
    Translational ZPE       0.000 [kcal/mol]        0.000 [kJ/mol]       0.00000000 [Eh]
    Rotational ZPE          0.000 [kcal/mol]        0.000 [kJ/mol]       0.00000000 [Eh]
    Vibrational ZPE         2.675 [kcal/mol]       11.191 [kJ/mol]       0.00426258 [Eh]         935.529 [cm^-1]
  Correction ZPE            2.675 [kcal/mol]       11.191 [kJ/mol]       0.00426258 [Eh]         935.529 [cm^-1]
  Total ZPE, Electronic energy at 0 [K]                              -1592.76447380 [Eh]

  Thermal Energy, E (includes ZPE)
    Electronic E            0.000 [kcal/mol]        0.000 [kJ/mol]       0.00000000 [Eh]
    Translational E         0.889 [kcal/mol]        3.718 [kJ/mol]       0.00141628 [Eh]
    Rotational E            0.889 [kcal/mol]        3.718 [kJ/mol]       0.00141628 [Eh]
    Vibrational E           4.401 [kcal/mol]       18.413 [kJ/mol]       0.00701321 [Eh]
  Correction E              6.178 [kcal/mol]       25.850 [kJ/mol]       0.00984576 [Eh]
  Total E, Electronic energy at  298.15 [K]                          -1592.75889063 [Eh]

  Enthalpy, H_trans = E_trans + k_B * T
    Electronic H            0.000 [kcal/mol]        0.000 [kJ/mol]       0.00000000 [Eh]
    Translational H         1.481 [kcal/mol]        6.197 [kJ/mol]       0.00236046 [Eh]
    Rotational H            0.889 [kcal/mol]        3.718 [kJ/mol]       0.00141628 [Eh]
    Vibrational H           4.401 [kcal/mol]       18.413 [kJ/mol]       0.00701321 [Eh]
  Correction H              6.771 [kcal/mol]       28.329 [kJ/mol]       0.01078994 [Eh]
  Total H, Enthalpy at  298.15 [K]                                   -1592.75794644 [Eh]

  Gibbs free energy, G = H - T * S
    Electronic G            0.000 [kcal/mol]        0.000 [kJ/mol]       0.00000000 [Eh]
    Translational G       -10.579 [kcal/mol]      -44.264 [kJ/mol]      -0.01685922 [Eh]
    Rotational G           -6.920 [kcal/mol]      -28.953 [kJ/mol]      -0.01102767 [Eh]
    Vibrational G           0.920 [kcal/mol]        3.850 [kJ/mol]       0.00146651 [Eh]
  Correction G            -16.579 [kcal/mol]      -69.367 [kJ/mol]      -0.02642039 [Eh]
  Total G, Free enthalpy at  298.15 [K]                              -1592.79515677 [Eh]

    Psi4 stopped on: Friday, 12 February 2021 12:20AM
    Psi4 wall time for execution: 10:20:47.77

*** Psi4 exiting successfully. Buy a developer a beer!
