                               Psi4 1.3.2 release

  ==> Input File <==

--------------------------------------------------------------------------
memory 46 GB

basis jerome {
assign pot
assign S aug-cc-pV(T+d)Z

[pot]
spherical
****
 K  0
 S 23 1.00
    2.709796E+07     4.136110E-07
    3.592856E+06     3.860330E-06
    7.222638E+05     2.394640E-05
    1.833976E+05     1.157540E-04
    5.464812E+04     4.697010E-04
    1.830913E+04     1.673720E-03
    6.712501E+03     5.370450E-03
    2.643719E+03     1.572510E-02
    1.103835E+03     4.193360E-02
    4.836777E+02     9.987620E-02
    2.206245E+02     2.019680E-01
    1.041117E+02     3.146270E-01
    5.052749E+01     3.107540E-01
    2.485247E+01     1.421920E-01
    1.128102E+01     1.658490E-02
    5.510166E+00    -2.759760E-04
    2.706914E+00     5.158310E-04
    1.122807E+00    -2.268950E-04
    5.236385E-01     6.652980E-05
    2.355180E-01    -3.685150E-05
    4.157977E-02     1.925250E-05
    2.555456E-02    -2.108420E-05
    1.471495E-02     7.044600E-06
 S 23 1.00
    2.709796E+07    -1.188290E-07
    3.592856E+06    -1.108550E-06
    7.222638E+05    -6.881230E-06
    1.833976E+05    -3.324150E-05
    5.464812E+04    -1.350850E-04
    1.830913E+04    -4.814570E-04
    6.712501E+03    -1.552620E-03
    2.643719E+03    -4.578330E-03
    1.103835E+03    -1.247930E-02
    4.836777E+02    -3.094650E-02
    2.206245E+02    -6.855530E-02
    1.041117E+02    -1.268300E-01
    5.052749E+01    -1.745020E-01
    2.485247E+01    -9.089560E-02
    1.128102E+01     2.506960E-01
    5.510166E+00     5.589630E-01
    2.706914E+00     3.284370E-01
    1.122807E+00     3.392170E-02
    5.236385E-01    -2.100280E-03
    2.355180E-01     1.383960E-03
    4.157977E-02    -5.315630E-04
    2.555456E-02     5.770310E-04
    1.471495E-02    -1.931440E-04
 S 23 1.00
    2.709796E+07     3.917470E-08
    3.592856E+06     3.650640E-07
    7.222638E+05     2.269460E-06
    1.833976E+05     1.094290E-05
    5.464812E+04     4.457360E-05
    1.830913E+04     1.584480E-04
    6.712501E+03     5.128440E-04
    2.643719E+03     1.507690E-03
    1.103835E+03     4.136940E-03
    4.836777E+02     1.024690E-02
    2.206245E+02     2.306520E-02
    1.041117E+02     4.308900E-02
    5.052749E+01     6.238120E-02
    2.485247E+01     3.270420E-02
    1.128102E+01    -1.021980E-01
    5.510166E+00    -3.317970E-01
    2.706914E+00    -3.030100E-01
    1.122807E+00     3.098410E-01
    5.236385E-01     6.732700E-01
    2.355180E-01     2.812200E-01
    4.157977E-02     9.376240E-03
    2.555456E-02    -6.955720E-03
    1.471495E-02     2.069460E-03
 S 23 1.00
    2.709796E+07    -7.564440E-09
    3.592856E+06    -7.055390E-08
    7.222638E+05    -4.380820E-07
    1.833976E+05    -2.115540E-06
    5.464812E+04    -8.601300E-06
    1.830913E+04    -3.064440E-05
    6.712501E+03    -9.892550E-05
    2.643719E+03    -2.917760E-04
    1.103835E+03    -7.977860E-04
    4.836777E+02    -1.985820E-03
    2.206245E+02    -4.449740E-03
    1.041117E+02    -8.390260E-03
    5.052749E+01    -1.206000E-02
    2.485247E+01    -6.568410E-03
    1.128102E+01     2.061430E-02
    5.510166E+00     6.770060E-02
    2.706914E+00     6.639570E-02
    1.122807E+00    -8.237770E-02
    5.236385E-01    -1.727150E-01
    2.355180E-01    -2.310290E-01
    4.157977E-02     5.090040E-01
    2.555456E-02     3.472180E-01
    1.471495E-02     2.809620E-01
 S 1 1.00
    2.555456E-02     1.000000E+00
 S 1 1.00
    1.471495E-02     1.000000E+00
 S 1 1.00
    8.470000E-03     1.000000E+00
 P 16 1.00
    9.533309E+03     4.212010E-05
    1.852081E+03     5.068300E-04
    5.464251E+02     3.311700E-03
    1.966947E+02     1.536840E-02
    7.964112E+01     5.457060E-02
    3.488324E+01     1.473880E-01
    1.604479E+01     2.879240E-01
    7.575632E+00     3.750810E-01
    3.672548E+00     2.545160E-01
    1.771130E+00     6.059280E-02
    8.515199E-01     2.508370E-03
    4.016017E-01     6.688870E-04
    1.851933E-01    -1.486150E-04
    5.523390E-02     4.936010E-05
    2.431085E-02    -3.513850E-05
    1.080339E-02     1.171450E-05
 P 16 1.00
    9.533309E+03    -1.280760E-05
    1.852081E+03    -1.547870E-04
    5.464251E+02    -1.010940E-03
    1.966947E+02    -4.738330E-03
    7.964112E+01    -1.703260E-02
    3.488324E+01    -4.754130E-02
    1.604479E+01    -9.560810E-02
    7.575632E+00    -1.337000E-01
    3.672548E+00    -7.425060E-02
    1.771130E+00     1.646810E-01
    8.515199E-01     4.057630E-01
    4.016017E-01     4.113600E-01
    1.851933E-01     1.734240E-01
    5.523390E-02     1.253640E-02
    2.431085E-02    -3.267140E-03
    1.080339E-02     1.039680E-03
 P 16 1.00
    9.533309E+03     1.764010E-06
    1.852081E+03     2.124880E-05
    5.464251E+02     1.392500E-04
    1.966947E+02     6.509140E-04
    7.964112E+01     2.349940E-03
    3.488324E+01     6.547470E-03
    1.604479E+01     1.326270E-02
    7.575632E+00     1.848520E-02
    3.672548E+00     1.025530E-02
    1.771130E+00    -2.652150E-02
    8.515199E-01    -6.086460E-02
    4.016017E-01    -7.474220E-02
    1.851933E-01    -4.870880E-02
    5.523390E-02     2.245720E-01
    2.431085E-02     5.839280E-01
    1.080339E-02     2.980960E-01
 P 1 1.00
    5.523390E-02     1.000000E+00
 P 1 1.00
    1.080339E-02     1.000000E+00
 P 1 1.00
    4.800000E-03     1.000000E+00
 D 6 1.00
    5.670903E+00     8.285900E-03
    1.459042E+00     2.332530E-02
    5.431827E-01     4.878080E-02
    1.346875E-01     7.349020E-02
    5.516013E-02     2.387630E-01
    1.501876E-02     8.253200E-01
 D 1 1.00
    5.516013E-02     1.000000E+00
 D 1 1.00
    1.501876E-02     1.000000E+00
 D 1 1.00
    6.010000E-03     1.000000E+00
 F 1 1.00
    8.493750E-02     1.000000E+00
 F 1 1.00
    3.398000E-02     1.000000E+00
 ****
}

molecule  {
0 2
S    0.000000000000    0.000000000000    0.486428429714
S    0.000000000000    0.000000000000    2.500877199374
K    0.000000000000    0.000000000000   -2.451264440826
}
set {
basis jerome
reference uhf
g_convergence gau_verytight
e_convergence 10
scf_type pk
freeze_core true
geom_maxiter 100
}

set ccenergy {
e_convergence 10
r_convergence 10
}

e = energy('ccsd(t)')

print_out('Stephenergy {}'.format(e))

--------------------------------------------------------------------------

    Molecular point group: c2v

    Geometry (in Angstrom), charge = 0, multiplicity = 2:

       Center              X                  Y                   Z               Mass
    ------------   -----------------  -----------------  -----------------  -----------------
         S            0.000000000000     0.000000000000     0.486428429714    31.972071174400
         S            0.000000000000     0.000000000000     2.500877199374    31.972071174400
         K            0.000000000000     0.000000000000    -2.451264440826    38.963706486400

  Charge       = 0
  Multiplicity = 2
  Basis Set: JEROME
    Blend: AUG-CC-PV(T+D)Z + POT

    Orbital Energies [Eh]
    ---------------------

    Alpha Occupied:

       1A1  -133.573152     2A1   -91.907583     3A1   -91.876576
       4A1   -14.529607     1B2   -11.559614     1B1   -11.559554
       5A1   -11.559466     6A1    -8.905634     7A1    -8.876398
       2B2    -6.598101     8A1    -6.583788     2B1    -6.581798
       3B2    -6.561275     9A1    -6.556746     3B1    -6.555510
      10A1    -1.788164     4B2    -0.996615    11A1    -0.996579
       4B1    -0.996109    12A1    -0.950677    13A1    -0.740254
       5B2    -0.413049    14A1    -0.410222     5B1    -0.374453
       6B2    -0.276530     6B1    -0.239145

    Alpha Virtual:

      15A1    -0.025374     7B2     0.000208     7B1     0.000460
      16A1     0.003567    17A1     0.014382     1A2     0.016332
      18A1     0.016346     8B2     0.017606     8B1     0.017929
       9B2     0.022315     9B1     0.022784    19A1     0.026565
      20A1     0.030653     2A2     0.048221    21A1     0.048226
      10B2     0.057898    10B1     0.058915    22A1     0.061358
      11B2     0.069022    11B1     0.069745    23A1     0.080137
      24A1     0.091669    25A1     0.107469    12B2     0.116985
      12B1     0.118438    13B2     0.122984    13B1     0.122984
      26A1     0.128562     3A2     0.128607    27A1     0.131749
       4A2     0.146402    28A1     0.146422    14B2     0.157305
      14B1     0.161983    29A1     0.167960    15B2     0.183096
      15B1     0.187075    30A1     0.197759    31A1     0.221390
      16B2     0.221541    16B1     0.223523    17B2     0.231199
      17B1     0.234748    32A1     0.277375    33A1     0.306781
      34A1     0.315096     5A2     0.317872    35A1     0.323789
      18B2     0.358552    18B1     0.365102     6A2     0.367673
      36A1     0.367841    19B2     0.375992    19B1     0.375993
       7A2     0.378925    37A1     0.378925    20B2     0.396706
      20B1     0.399980    38A1     0.400228    39A1     0.438913
       8A2     0.452343    40A1     0.452766    41A1     0.455636
      21B2     0.455691    21B1     0.465954    42A1     0.534068
      22B2     0.539144    22B1     0.551662    23B2     0.649891
      23B1     0.666469    43A1     0.717918    24B2     0.733224
      24B1     0.746899    44A1     0.755060     9A2     0.758491
      45A1     0.775178    25B2     0.841054    10A2     0.855073
      46A1     0.855090    25B1     0.861825    47A1     0.871165
      26B2     0.874857    26B1     0.874872    27B2     0.938373
      27B1     0.952610    48A1     0.965407    11A2     0.968711
      49A1     0.969665    28B2     1.017569    28B1     1.017579
      50A1     1.041603    51A1     1.176285    29B2     1.188649
      29B1     1.204122    52A1     1.220540    12A2     1.221690
      53A1     1.269547    30B2     1.380822    30B1     1.397764
      54A1     1.521717    55A1     1.724479    13A2     2.001234
      56A1     2.001946    57A1     2.090041    14A2     2.090078
      31B2     2.136387    58A1     2.136700    31B1     2.155656
      32B2     2.226848    32B1     2.248856    33B2     2.308409
      59A1     2.309001    33B1     2.328299    15A2     2.386883
      60A1     2.387418    34B2     2.411176    34B1     2.411314
      35B2     2.477702    35B1     2.478026    36B2     2.478423
      36B1     2.502235    61A1     2.503937    37B2     2.605143
      62A1     2.613093    16A2     2.613825    37B1     2.624720
      63A1     2.755297    64A1     2.865999    38B2     2.929206
      38B1     2.950921    65A1     4.064698    66A1     5.005182
      67A1     5.793483    68A1     7.396545    17A2     7.396706
      69A1     7.450349    18A2     7.450366    39B2     7.477101
      39B1     7.493015    40B2     7.553566    40B1     7.561745
      70A1     7.616549    71A1     7.669035

    Beta Occupied:

       1A1  -133.573164     2A1   -91.899940     3A1   -91.874032
       4A1   -14.529625     1B2   -11.559574     1B1   -11.559568
       5A1   -11.559514     6A1    -8.897300     7A1    -8.873621
       8A1    -6.579513     2B1    -6.577209     2B2    -6.564523
       9A1    -6.556162     3B1    -6.553885     3B2    -6.549572
      10A1    -1.788194     4B2    -0.996348     4B1    -0.996174
      11A1    -0.996062    12A1    -0.912506    13A1    -0.675590
      14A1    -0.394145     5B1    -0.365640     5B2    -0.298279
       6B1    -0.227261

    Beta Virtual:

      15A1    -0.025263     6B2     0.000159     7B1     0.000462
      16A1     0.003621    17A1     0.014383     1A2     0.016332
      18A1     0.016346     7B2     0.017441     8B1     0.017933
       8B2     0.022354     9B1     0.022784    19A1     0.026707
      20A1     0.030688     2A2     0.048249    21A1     0.048252
       9B2     0.056984    10B1     0.058931    22A1     0.061363
      10B2     0.065372    11B1     0.069754    11B2     0.079596
      23A1     0.080063    24A1     0.092641    25A1     0.108637
      12B1     0.118556    12B2     0.122862    13B1     0.123004
      13B2     0.123074    26A1     0.128635     3A2     0.128682
      27A1     0.131893     4A2     0.146802    28A1     0.146809
      14B1     0.162171    14B2     0.162796    29A1     0.167781
      15B1     0.187601    15B2     0.197371    30A1     0.206287
      16B2     0.222710    31A1     0.223085    16B1     0.223514
      17B1     0.234438    17B2     0.238339    32A1     0.277417
      33A1     0.309826    34A1     0.323655     5A2     0.327370
      35A1     0.328007    18B1     0.364745    18B2     0.367178
       6A2     0.372579    36A1     0.372641    19B1     0.376131
      19B2     0.376131     7A2     0.379318    37A1     0.379323
      20B1     0.399754    38A1     0.400726    20B2     0.401406
      39A1     0.443931    40A1     0.457200     8A2     0.460485
      41A1     0.460962    21B1     0.466741    21B2     0.474708
      42A1     0.540400    22B1     0.552743    22B2     0.565138
      23B1     0.668660    23B2     0.672114    43A1     0.722854
      24B1     0.749194    24B2     0.755880    44A1     0.775486
      45A1     0.789346     9A2     0.789700    25B1     0.863262
      25B2     0.873225    46A1     0.878429    10A2     0.880674
      26B1     0.880788    26B2     0.880972    47A1     0.881223
      27B1     0.953069    27B2     0.959670    48A1     0.972351
      11A2     0.979404    49A1     0.979623    28B1     1.027206
      28B2     1.027211    50A1     1.047107    51A1     1.181950
      29B2     1.201613    29B1     1.204528    52A1     1.228611
      12A2     1.228975    53A1     1.273585    30B2     1.397431
      30B1     1.399780    54A1     1.535354    55A1     1.735771
      56A1     2.020576    13A2     2.020616    57A1     2.101887
      14A2     2.101992    58A1     2.138670    31B2     2.149918
      31B1     2.156923    32B2     2.249755    32B1     2.251151
      59A1     2.313912    33B2     2.325548    33B1     2.330360
      15A2     2.399344    60A1     2.399390    34B1     2.434937
      34B2     2.434940    35B1     2.496105    35B2     2.496108
      36B1     2.506689    61A1     2.507906    36B2     2.512971
      62A1     2.626646    16A2     2.626767    37B2     2.627067
      37B1     2.627765    63A1     2.761498    64A1     2.870641
      38B2     2.949053    38B1     2.952966    65A1     4.067842
      66A1     5.015404    67A1     5.802690    68A1     7.404748
      17A2     7.404824    69A1     7.454247    18A2     7.454259
      39B2     7.484637    39B1     7.494089    40B2     7.557100
      40B1     7.562134    70A1     7.618971    71A1     7.670509

    Final Occupation by Irrep:
             A1    A2    B1    B2
    DOCC [    14,    0,    6,    5 ]
    SOCC [     0,    0,    0,    1 ]

  @UHF Final Energy: -1394.29578290735117

   => Energetics <=

    Nuclear Repulsion Energy =            154.4943769721639626
    One-Electron Energy =               -2234.2563211409569703
    Two-Electron Energy =                 685.4661612614419255
    Total Energy =                      -1394.2957829073511675

  UHF NO Occupations:
  HONO-2 :   14 A1 1.9957411
  HONO-1 :    5 B2 1.9922148
  HONO-0 :    6 B2 1.0000000
  LUNO+0 :    7 B2 0.0077852
  LUNO+1 :   15 A1 0.0042589
  LUNO+2 :   16 A1 0.0009138
  LUNO+3 :    7 B1 0.0003810

Computation Completed

Properties will be evaluated at   0.000000,   0.000000,   0.000000 [a0]

Properties computed using the SCF density matrix

  Nuclear Dipole Moment: [e a0]
     X:     0.0000      Y:     0.0000      Z:     2.3109

  Electronic Dipole Moment: [e a0]
     X:     0.0000      Y:     0.0000      Z:    -7.8507

  Dipole Moment: [e a0]
     X:     0.0000      Y:     0.0000      Z:    -5.5398     Total:     5.5398

  Dipole Moment: [D]
     X:     0.0000      Y:     0.0000      Z:   -14.0808     Total:    14.0808

*** tstop() called on d2-13.compute.lan at Fri Mar  5 15:34:18 2021
Module time:
	user time   =     269.46 seconds =       4.49 minutes
	system time =       5.97 seconds =       0.10 minutes
	total time  =         71 seconds =       1.18 minutes
Total time:
	user time   =     269.46 seconds =       4.49 minutes
	system time =       5.97 seconds =       0.10 minutes
	total time  =         71 seconds =       1.18 minutes
 MINTS: Wrapper to libmints.
   by Justin Turney

   Calculation information:
      Number of threads:                12
      Number of atoms:                   3
      Number of AO shells:              53
      Number of SO shells:              53
      Number of primitives:            287
      Number of atomic orbitals:       199
      Number of basis functions:       169

      Number of irreps:                  4
      Integral cutoff                 0.00e+00
      Number of functions per irrep: [  71   18   40   40 ]

 OEINTS: Overlap, kinetic, potential, dipole, and quadrupole integrals
         stored in file 35.

      Computing two-electron integrals...done
      Computed 23779822 non-zero two-electron integrals.
        Stored in file 33.

*** tstart() called on d2-13.compute.lan
*** at Fri Mar  5 15:36:29 2021

	Wfn Parameters:
	--------------------
	Wavefunction         = CCSD_T
	Number of irreps     = 4
	Number of MOs        = 169
	Number of active MOs = 150
	AO-Basis             = NONE
	Semicanonical        = false
	Reference            = UHF
	Print Level          = 1

	IRREP	# MOs	# FZDC	# DOCC	# SOCC	# VIRT	# FZVR
	-----	-----	------	------	------	------	------
	 A1	   71	    11	    3	    0	    57	    0
	 A2	   18	    0	    0	    0	    18	    0
	 B1	   40	    4	    2	    0	    34	    0
	 B2	   40	    4	    1	    1	    34	    0
	Transforming integrals...
	IWL integrals will be deleted.
	(OO|OO)...
	Presorting SO-basis two-electron integrals.
	Sorting File: SO Ints (nn|nn) nbuckets = 1
	Transforming the one-electron integrals and constructing Fock matrices
	Starting AA/AB first half-transformation.
	Sorting AA/AB half-transformed integrals.
	Starting BB first half-transformation.
	Sorting BB half-transformed integrals.
	First half integral transformation complete.
	Starting AA second half-transformation.
	Starting AB second half-transformation.
	Starting BB second half-transformation.
	Two-electron integral transformation complete.
	(OO|OV)...
	Starting AA second half-transformation.
	Starting AB second half-transformation.
	Starting BB second half-transformation.
	Two-electron integral transformation complete.
	(OO|VV)...
	Starting AA second half-transformation.
	Starting AB second half-transformation.
	Starting BB second half-transformation.
	Two-electron integral transformation complete.
	(OV|OO)...
	Starting AA/AB first half-transformation.
	Sorting AA/AB half-transformed integrals.
	Starting BB first half-transformation.
	Sorting BB half-transformed integrals.
	First half integral transformation complete.
	Starting AA second half-transformation.
	Starting AB second half-transformation.
	Starting BB second half-transformation.
	Two-electron integral transformation complete.
	(OV|OV)...
	Starting AA second half-transformation.
	Starting AB second half-transformation.
	Starting BB second half-transformation.
	Two-electron integral transformation complete.
	(OV|VV)...
	Starting AA second half-transformation.
	Starting AB second half-transformation.
	Starting BB second half-transformation.
	Two-electron integral transformation complete.
	(VV|OO)...
	Starting AA/AB first half-transformation.
	Sorting AA/AB half-transformed integrals.
	Starting BB first half-transformation.
	Sorting BB half-transformed integrals.
	First half integral transformation complete.
	Starting AA second half-transformation.
	Starting AB second half-transformation.
	Starting BB second half-transformation.
	Two-electron integral transformation complete.
	(VV|OV)...
	Starting AA second half-transformation.
	Starting AB second half-transformation.
	Starting BB second half-transformation.
	Two-electron integral transformation complete.
	(VV|VV)...
	Starting AA second half-transformation.
	Starting AB second half-transformation.
	Starting BB second half-transformation.
	Two-electron integral transformation complete.
	Frozen core energy     =  -1517.52058804340936

	Size of irrep 0 of <AB|CD> integrals:      8.243 (MW) /     65.941 (MB)
	Size of irrep 1 of <AB|CD> integrals:      4.761 (MW) /     38.089 (MB)
	Size of irrep 2 of <AB|CD> integrals:      6.503 (MW) /     52.020 (MB)
	Size of irrep 3 of <AB|CD> integrals:      6.503 (MW) /     52.020 (MB)
	Total:                                    26.009 (MW) /    208.070 (MB)

	Size of irrep 0 of <ab|cd> integrals:      8.439 (MW) /     67.512 (MB)
	Size of irrep 1 of <ab|cd> integrals:      4.911 (MW) /     39.285 (MB)
	Size of irrep 2 of <ab|cd> integrals:      6.595 (MW) /     52.757 (MB)
	Size of irrep 3 of <ab|cd> integrals:      6.796 (MW) /     54.372 (MB)
	Total:                                    26.741 (MW) /    213.926 (MB)

	Size of irrep 0 of <Ab|Cd> integrals:     35.035 (MW) /    280.276 (MB)
	Size of irrep 1 of <Ab|Cd> integrals:     19.342 (MW) /    154.739 (MB)
	Size of irrep 2 of <Ab|Cd> integrals:     26.194 (MW) /    209.551 (MB)
	Size of irrep 3 of <Ab|Cd> integrals:     26.595 (MW) /    212.757 (MB)
	Total:                                   107.166 (MW) /    857.324 (MB)

	Size of irrep 0 of <IA|BC> integrals:      1.807 (MW) /     14.454 (MB)
	Size of irrep 1 of <IA|BC> integrals:      0.829 (MW) /      6.633 (MB)
	Size of irrep 2 of <IA|BC> integrals:      1.285 (MW) /     10.282 (MB)
	Size of irrep 3 of <IA|BC> integrals:      1.285 (MW) /     10.282 (MB)
	Total:                                     5.206 (MW) /     41.650 (MB)

	Size of irrep 0 of <ia|bc> integrals:      1.631 (MW) /     13.051 (MB)
	Size of irrep 1 of <ia|bc> integrals:      0.700 (MW) /      5.602 (MB)
	Size of irrep 2 of <ia|bc> integrals:      1.202 (MW) /      9.615 (MB)
	Size of irrep 3 of <ia|bc> integrals:      1.032 (MW) /      8.259 (MB)
	Total:                                     4.566 (MW) /     36.527 (MB)

	Size of irrep 0 of <Ia|Bc> integrals:      1.829 (MW) /     14.632 (MB)
	Size of irrep 1 of <Ia|Bc> integrals:      0.844 (MW) /      6.755 (MB)
	Size of irrep 2 of <Ia|Bc> integrals:      1.290 (MW) /     10.318 (MB)
	Size of irrep 3 of <Ia|Bc> integrals:      1.315 (MW) /     10.520 (MB)
	Total:                                     5.278 (MW) /     42.225 (MB)

	Size of irrep 0 of <iA|bC> integrals:      1.616 (MW) /     12.927 (MB)
	Size of irrep 1 of <iA|bC> integrals:      0.686 (MW) /      5.489 (MB)
	Size of irrep 2 of <iA|bC> integrals:      1.198 (MW) /      9.581 (MB)
	Size of irrep 3 of <iA|bC> integrals:      1.006 (MW) /      8.045 (MB)
	Total:                                     4.505 (MW) /     36.042 (MB)

	Size of irrep 0 of tIjAb amplitudes:       0.089 (MW) /      0.710 (MB)
	Size of irrep 1 of tIjAb amplitudes:       0.026 (MW) /      0.211 (MB)
	Size of irrep 2 of tIjAb amplitudes:       0.061 (MW) /      0.491 (MB)
	Size of irrep 3 of tIjAb amplitudes:       0.046 (MW) /      0.371 (MB)
	Total:                                     0.223 (MW) /      1.784 (MB)

	Nuclear Rep. energy          =    154.49437697216396
	SCF energy                   =  -1394.29578290735117
	One-electron energy          =    -56.26139197832217
	Two-electron (AA) energy     =      6.13785149112860
	Two-electron (BB) energy     =      4.38915689076168
	Two-electron (AB) energy     =     14.46481176030680
	Two-electron energy          =     24.99182014219708
	Reference energy             =  -1394.29578290737049

*** tstop() called on d2-13.compute.lan at Fri Mar  5 15:37:16 2021
Module time:
	user time   =     343.03 seconds =       5.72 minutes
	system time =      19.77 seconds =       0.33 minutes
	total time  =         47 seconds =       0.78 minutes
Total time:
	user time   =     746.12 seconds =      12.44 minutes
	system time =      26.97 seconds =       0.45 minutes
	total time  =        249 seconds =       4.15 minutes
            **************************
            *                        *
            *        CCENERGY        *
            *                        *
            **************************

    Nuclear Rep. energy (wfn)     =  154.494376972163963
    SCF energy          (wfn)     = -1394.295782907351168
    Reference energy    (file100) = -1394.295782907370494

    Input parameters:
    -----------------
    Wave function   =     CCSD_T
    Reference wfn   =     UHF
    Brueckner       =     No
    Memory (Mbytes) =     46000.0
    Maxiter         =     50
    R_Convergence   =     1.0e-10
    E_Convergence   =     1.0e-10
    Restart         =     Yes
    DIIS            =     Yes
    AO Basis        =     NONE
    ABCD            =     NEW
    Cache Level     =     2
    Cache Type      =     LRU
    Print Level     =     1
    Num. of threads =     12
    # Amps to Print =     10
    Print MP2 Amps? =     No
    Analyze T2 Amps =     No
    Print Pair Ener =     No
    Local CC        =     No
    SCS-MP2         =     False
    SCSN-MP2        =     False
    SCS-CCSD        =     False

MP2 correlation energy -0.3404701072108085
                Solving CC Amplitude Equations
                ------------------------------
  Iter             Energy              RMS        T1Diag      D1Diag    New D1Diag    D2Diag

      * MP2 total energy                      = -1394.636253014581371
      * CCSD total energy                     = -1394.665565947688947
      * CCSD(T) total energy                     = -1394.686971763082965
*** Psi4 exiting successfully. Buy a developer a beer!
