                               Psi4 1.4a2.dev191

  ==> Input File <==

--------------------------------------------------------------------------
memory 10 GB

molecule  {
0 1
S
S 1 r1
r1 = 2.0
}

set {
reference uks
basis aug-cc-pvtz
g_convergence gau_verytight
dft_spherical_points 590
dft_radial_points 99
}

optimize('wb97m-v')
frequencies('wb97m-v')

--------------------------------------------------------------------------

    Molecular point group: d2h
  Charge       = 0
  Multiplicity = 1
  Basis Set: AUG-CC-PVTZ
    Blend: AUG-CC-PVTZ
  Basis Set: (AUG-CC-PVTZ AUX)
    Blend: AUG-CC-PVTZ-JKFIT
  @DF-UKS Final Energy:  -796.32484626449241
    Total Energy =                       -796.3248462644924075
    Molecular point group: d2h
  Basis Set: AUG-CC-PVTZ
    Blend: AUG-CC-PVTZ
  Basis Set: (AUG-CC-PVTZ AUX)
    Blend: AUG-CC-PVTZ-JKFIT
  @DF-UKS Final Energy:  -796.32477738642888
    Total Energy =                       -796.3247773864288774
  Basis Set: AUG-CC-PVTZ
    Blend: AUG-CC-PVTZ
  Basis Set: (AUG-CC-PVTZ AUX)
    Blend: AUG-CC-PVTZ-JKFIT
  @DF-UKS Final Energy:  -796.32491482041451
    Total Energy =                       -796.3249148204146195
  Basis Set: AUG-CC-PVTZ
    Blend: AUG-CC-PVTZ
  Basis Set: (AUG-CC-PVTZ AUX)
    Blend: AUG-CC-PVTZ-JKFIT
  @DF-UKS Final Energy:  -796.33051322250446
    Total Energy =                       -796.3305132225044645
  @DF-UKS Final Energy:  -796.33049354590617
    Total Energy =                       -796.3304935459061653
  @DF-UKS Final Energy:  -796.33053241723110
    Total Energy =                       -796.3305324172312112
  @DF-UKS Final Energy:  -796.33085763137319
    Total Energy =                       -796.3308576313734193
  @DF-UKS Final Energy:  -796.33086329428579
    Total Energy =                       -796.3308632942859049
  @DF-UKS Final Energy:  -796.33085140609910
    Total Energy =                       -796.3308514060987591
  @DF-UKS Final Energy:  -796.33088702016767
    Total Energy =                       -796.3308870201676655
  @DF-UKS Final Energy:  -796.33088513757298
    Total Energy =                       -796.3308851375728636
  @DF-UKS Final Energy:  -796.33088836514958
    Total Energy =                       -796.3308883651498036
  @DF-UKS Final Energy:  -796.33088942362338
    Total Energy =                       -796.3308894236234892
  @DF-UKS Final Energy:  -796.33088925057530
    Total Energy =                       -796.3308892505751828
  @DF-UKS Final Energy:  -796.33088905264799
    Total Energy =                       -796.3308890526479900
  @DF-UKS Final Energy:  -796.33088943141081
    Total Energy =                       -796.3308894314108102
  @DF-UKS Final Energy:  -796.33088916311897
    Total Energy =                       -796.3308891631190818
  @DF-UKS Final Energy:  -796.33088915847713
    Total Energy =                       -796.3308891584773619
  @DF-UKS Final Energy:  -796.33088943180405
    Total Energy =                       -796.3308894318040529
  @DF-UKS Final Energy:  -796.33088916052361
    Total Energy =                       -796.3308891605234976
  @DF-UKS Final Energy:  -796.33088916028305
    Total Energy =                       -796.3308891602831636
  **** Optimization is complete! (in 7 steps) ****
    Final optimized geometry and variables:
  @DF-UKS Final Energy:  -796.33088943180439
    Total Energy =                       -796.3308894318046214
  @DF-UKS Final Energy:  -796.33088916053600
    Total Energy =                       -796.3308891605360031
  Basis Set: AUG-CC-PVTZ
    Blend: AUG-CC-PVTZ
  Basis Set: (AUG-CC-PVTZ AUX)
    Blend: AUG-CC-PVTZ-JKFIT
  @DF-UKS Final Energy:  -796.33088916028510
    Total Energy =                       -796.3308891602850963
  Basis Set: AUG-CC-PVTZ
    Blend: AUG-CC-PVTZ
  Basis Set: (AUG-CC-PVTZ AUX)
    Blend: AUG-CC-PVTZ-JKFIT
  @DF-UKS Final Energy:  -796.33088943180394
    Total Energy =                       -796.3308894318039393
  Multiplicity = 1
  Basis Set: AUG-CC-PVTZ
    Blend: AUG-CC-PVTZ
  Basis Set: (AUG-CC-PVTZ AUX)
    Blend: AUG-CC-PVTZ-JKFIT
  @DF-UKS Final Energy:  -796.33088916053612
    Total Energy =                       -796.3308891605361168
    Molecular point group: d2h

    Geometry (in Angstrom), charge = 0, multiplicity = 1:

       Center              X                  Y                   Z               Mass
    ------------   -----------------  -----------------  -----------------  -----------------
         S            0.000000000000     0.000000000000    -0.946089951118    31.972071174400
         S            0.000000000000     0.000000000000     0.946089951118    31.972071174400

  Charge       = 0
  Multiplicity = 1
  Basis Set: AUG-CC-PVTZ
    Blend: AUG-CC-PVTZ
  Basis Set: (AUG-CC-PVTZ AUX)
    Blend: AUG-CC-PVTZ-JKFIT

    Orbital Energies [Eh]
    ---------------------

    Alpha Occupied:

       1B1u  -89.263796     1Ag   -89.263794     2Ag    -8.174462
       2B1u   -8.174263     1B3u   -6.086269     1B2g   -6.086210
       3Ag    -6.083218     3B1u   -6.082476     1B2u   -6.073749
       1B3g   -6.073702     4Ag    -0.952733     4B1u   -0.721678
       5Ag    -0.485710     2B2u   -0.455989     2B3u   -0.452940
       2B3g   -0.305212

    Alpha Virtual:

       2B2g   -0.093249     5B1u    0.028926     3B3u    0.062923
       6Ag     0.064688     3B2u    0.070396     7Ag     0.083241
       3B2g    0.094440     3B3g    0.096938     6B1u    0.105152
       1B1g    0.186962     8Ag     0.187203     7B1u    0.196176
       4B3u    0.240611     4B2u    0.246015     9Ag     0.271915
       8B1u    0.296788     1Au     0.297109     4B2g    0.354202
       9B1u    0.361383     4B3g    0.362014     5B3u    0.444238
       5B2u    0.460105     6B3u    0.542955    10Ag     0.544415
      10B1u    0.550840    11Ag     0.552375     6B2u    0.557119
       5B2g    0.561707     2B1g    0.567918    12Ag     0.573590
       5B3g    0.575604     2Au     0.666026    11B1u    0.666122
      13Ag     0.675577     7B3u    0.702314     7B2u    0.702397
       6B2g    0.746001     6B3g    0.761140     3B1g    0.784066
      14Ag     0.785540     7B2g    0.855127     7B3g    0.855246
      12B1u    0.875741     8B3u    1.012981     8B2u    1.028634
      13B1u    1.049996     3Au     1.051802    14B1u    1.095289
       8B2g    1.208503     8B3g    1.224025    15Ag     1.306646
      15B1u    1.421504     4B1g    1.764209    16Ag     1.765588
       9B3u    1.783448     9B2u    1.802725    16B1u    1.804709
       4Au     1.842012    17B1u    1.844627    17Ag     1.914308
       9B2g    1.925317     9B3g    1.941474    18Ag     2.008591
       5B1g    2.011258    10B3u    2.025798    19Ag     2.025833
      10B2u    2.044370    11B3u    2.081967    11B2u    2.088435
      12B3u    2.090020    12B2u    2.099990    10B3g    2.161732
      10B2g    2.161769    18B1u    2.319709     5Au     2.321092
      11B2g    2.352076    11B3g    2.372383    19B1u    2.466056
      12B2g    2.651290    12B3g    2.670935    20Ag     2.686154
      20B1u    3.634358    21Ag     4.657721    21B1u    5.404262

    Beta Occupied:

       1B1u  -89.263796     1Ag   -89.263794     2Ag    -8.174462
       2B1u   -8.174263     1B3u   -6.086269     1B2g   -6.086210
       3Ag    -6.083218     3B1u   -6.082476     1B2u   -6.073749
       1B3g   -6.073702     4Ag    -0.952733     4B1u   -0.721678
       5Ag    -0.485710     2B2u   -0.455989     2B3u   -0.452940
       2B3g   -0.305212

    Beta Virtual:

       2B2g   -0.093249     5B1u    0.028926     3B3u    0.062923
       6Ag     0.064688     3B2u    0.070396     7Ag     0.083241
       3B2g    0.094440     3B3g    0.096938     6B1u    0.105152
       1B1g    0.186962     8Ag     0.187203     7B1u    0.196176
       4B3u    0.240611     4B2u    0.246015     9Ag     0.271915
       8B1u    0.296788     1Au     0.297109     4B2g    0.354202
       9B1u    0.361383     4B3g    0.362014     5B3u    0.444238
       5B2u    0.460105     6B3u    0.542955    10Ag     0.544415
      10B1u    0.550840    11Ag     0.552375     6B2u    0.557119
       5B2g    0.561707     2B1g    0.567918    12Ag     0.573590
       5B3g    0.575604     2Au     0.666026    11B1u    0.666122
      13Ag     0.675577     7B3u    0.702314     7B2u    0.702397
       6B2g    0.746001     6B3g    0.761140     3B1g    0.784066
      14Ag     0.785540     7B2g    0.855127     7B3g    0.855246
      12B1u    0.875741     8B3u    1.012981     8B2u    1.028634
      13B1u    1.049996     3Au     1.051802    14B1u    1.095289
       8B2g    1.208503     8B3g    1.224025    15Ag     1.306646
      15B1u    1.421504     4B1g    1.764209    16Ag     1.765588
       9B3u    1.783448     9B2u    1.802725    16B1u    1.804709
       4Au     1.842012    17B1u    1.844627    17Ag     1.914308
       9B2g    1.925317     9B3g    1.941474    18Ag     2.008591
       5B1g    2.011258    10B3u    2.025798    19Ag     2.025833
      10B2u    2.044370    11B3u    2.081967    11B2u    2.088435
      12B3u    2.090020    12B2u    2.099990    10B3g    2.161732
      10B2g    2.161769    18B1u    2.319709     5Au     2.321092
      11B2g    2.352076    11B3g    2.372383    19B1u    2.466056
      12B2g    2.651290    12B3g    2.670935    20Ag     2.686154
      20B1u    3.634358    21Ag     4.657721    21B1u    5.404262

    Final Occupation by Irrep:
             Ag   B1g   B2g   B3g    Au   B1u   B2u   B3u
    DOCC [     5,    0,    1,    2,    0,    4,    2,    2 ]
    SOCC [     0,    0,    0,    0,    0,    0,    0,    0 ]

  @DF-UKS Final Energy:  -796.33088916028487

   => Energetics <=

    Nuclear Repulsion Energy =             71.5943371829771991
    One-Electron Energy =               -1241.6154364712733695
    Two-Electron Energy =                 413.1211315800981083
    DFT Exchange-Correlation Energy =     -39.5645644620119299
    Empirical Dispersion Energy =           0.0000000000000000
    VV10 Nonlocal Energy =                  0.1336430099251538
    Total Energy =                       -796.3308891602848689

  UHF NO Occupations:
  HONO-2 :    4B1u 2.0000000
  HONO-1 :    4 Ag 2.0000000
  HONO-0 :    5 Ag 2.0000000
  LUNO+0 :    5B1u 0.0000000
  LUNO+1 :    6 Ag 0.0000000
  LUNO+2 :    7 Ag 0.0000000
  LUNO+3 :    3B3g 0.0000000

Computation Completed

Properties will be evaluated at   0.000000,   0.000000,   0.000000 [a0]

Properties computed using the SCF density matrix

  Nuclear Dipole Moment: [e a0]
     X:     0.0000      Y:     0.0000      Z:     0.0000

  Electronic Dipole Moment: [e a0]
     X:     0.0000      Y:     0.0000      Z:     0.0000

  Dipole Moment: [e a0]
     X:     0.0000      Y:     0.0000      Z:     0.0000     Total:     0.0000

  Dipole Moment: [D]
     X:     0.0000      Y:     0.0000      Z:     0.0000     Total:     0.0000

*** tstop() called on c1-9.compute.lan at Tue Feb  2 11:38:29 2021
Module time:
	user time   =      30.57 seconds =       0.51 minutes
	system time =       0.19 seconds =       0.00 minutes
	total time  =         31 seconds =       0.52 minutes
Total time:
	user time   =     580.69 seconds =       9.68 minutes
	system time =       5.67 seconds =       0.09 minutes
	total time  =        587 seconds =       9.78 minutes

         ----------------------------------------------------------
                                   FINDIF
                     R. A. King and Jonathon Misiewicz
         ---------------------------------------------------------

  Computing second-derivative from energies using projected,
  symmetry-adapted, cartesian coordinates.

  3 energies passed in, including the reference geometry.
    Using 3-point formula.
    Energy without displacement: -796.3308894318
    Check energies below for precision!
    0: -1 :      -796.3308891605
    0: 1  :      -796.3308891603

-------------------------------------------------------------

  ==> Harmonic Vibrational Analysis <==

  non-mass-weighted Hessian:       Symmetric? True   Hermitian? True   Lin Dep Dim?  5 (0)
  projection of translations (True) and rotations (True) removed 5 degrees of freedom (5)
  total projector:                 Symmetric? True   Hermitian? True   Lin Dep Dim?  5 (5)
  mass-weighted Hessian:           Symmetric? True   Hermitian? True   Lin Dep Dim?  5 (0)
  pre-proj  low-frequency mode:    0.0000  [cm^-1]
  pre-proj  low-frequency mode:    0.0000  [cm^-1]
  pre-proj  low-frequency mode:    0.0000  [cm^-1]
  pre-proj  low-frequency mode:    0.0000  [cm^-1]
  pre-proj  low-frequency mode:    0.0000  [cm^-1]
  pre-proj  all modes:['0.0000' '0.0000' '0.0000' '0.0000' '0.0000' '757.4412']
  projected mass-weighted Hessian: Symmetric? True   Hermitian? True   Lin Dep Dim?  5 (5)
  post-proj low-frequency mode:    0.0000i [cm^-1] (TR)
  post-proj low-frequency mode:    0.0000  [cm^-1] (TR)
  post-proj low-frequency mode:    0.0000  [cm^-1] (TR)
  post-proj low-frequency mode:    0.0000  [cm^-1] (TR)
  post-proj low-frequency mode:    0.0000  [cm^-1] (TR)
  post-proj  all modes:['0.0000i' '0.0000' '0.0000' '0.0000' '0.0000' '757.4412']

  Vibration                       6
  Freq [cm^-1]                 757.4412
  Irrep                           Ag
  Reduced mass [u]             31.9721
  Force const [mDyne/A]        10.8073
  Turning point v=0 [a0]        0.0705
  RMS dev v=0 [a0 u^1/2]        0.2819
  Char temp [K]               1089.7893
  ----------------------------------------------------------------------------------
      1   S                0.00  0.00  0.71
      2   S                0.00  0.00 -0.71

  ==> Thermochemistry Components <==

  Entropy, S
    Electronic S            0.000 [cal/(mol K)]        0.000 [J/(mol K)]       0.00000000 [mEh/K] (multiplicity = 1)
    Translational S        38.385 [cal/(mol K)]      160.603 [J/(mol K)]       0.06117054 [mEh/K] (mol. weight = 63.9441 [u], P = 101325.00 [Pa])
    Rotational S           13.640 [cal/(mol K)]       57.068 [J/(mol K)]       0.02173612 [mEh/K] (symmetry no. = 2)
    Vibrational S           0.245 [cal/(mol K)]        1.024 [J/(mol K)]       0.00039021 [mEh/K]
  Total S                  52.270 [cal/(mol K)]      218.696 [J/(mol K)]       0.08329687 [mEh/K]
  Correction S              0.000 [cal/(mol K)]        0.000 [J/(mol K)]       0.00000000 [mEh/K]

  Constant volume heat capacity, Cv
    Electronic Cv           0.000 [cal/(mol K)]        0.000 [J/(mol K)]       0.00000000 [mEh/K]
    Translational Cv        2.981 [cal/(mol K)]       12.472 [J/(mol K)]       0.00475022 [mEh/K]
    Rotational Cv           1.987 [cal/(mol K)]        8.314 [J/(mol K)]       0.00316681 [mEh/K]
    Vibrational Cv          0.723 [cal/(mol K)]        3.027 [J/(mol K)]       0.00115285 [mEh/K]
  Total Cv                  5.691 [cal/(mol K)]       23.813 [J/(mol K)]       0.00906987 [mEh/K]
  Correction Cv             0.000 [cal/(mol K)]        0.000 [J/(mol K)]       0.00000000 [mEh/K]

  Constant pressure heat capacity, Cp
    Electronic Cp           0.000 [cal/(mol K)]        0.000 [J/(mol K)]       0.00000000 [mEh/K]
    Translational Cp        4.968 [cal/(mol K)]       20.786 [J/(mol K)]       0.00791703 [mEh/K]
    Rotational Cp           1.987 [cal/(mol K)]        8.314 [J/(mol K)]       0.00316681 [mEh/K]
    Vibrational Cp          0.723 [cal/(mol K)]        3.027 [J/(mol K)]       0.00115285 [mEh/K]
  Total Cp                  7.679 [cal/(mol K)]       32.127 [J/(mol K)]       0.01223668 [mEh/K]
  Correction Cp             0.000 [cal/(mol K)]        0.000 [J/(mol K)]       0.00000000 [mEh/K]

  ==> Thermochemistry Energy Analysis <==

  Raw electronic energy, E0
  Total E0, Electronic energy at well bottom at 0 [K]                 -796.33088943 [Eh]

  Zero-point energy, ZPE_vib = Sum_i nu_i / 2
    Electronic ZPE          0.000 [kcal/mol]        0.000 [kJ/mol]       0.00000000 [Eh]
    Translational ZPE       0.000 [kcal/mol]        0.000 [kJ/mol]       0.00000000 [Eh]
    Rotational ZPE          0.000 [kcal/mol]        0.000 [kJ/mol]       0.00000000 [Eh]
    Vibrational ZPE         1.083 [kcal/mol]        4.531 [kJ/mol]       0.00172558 [Eh]         378.721 [cm^-1]
  Correction ZPE            1.083 [kcal/mol]        4.531 [kJ/mol]       0.00172558 [Eh]         378.721 [cm^-1]
  Total ZPE, Electronic energy at 0 [K]                               -796.32916385 [Eh]

  Thermal Energy, E (includes ZPE)
    Electronic E            0.000 [kcal/mol]        0.000 [kJ/mol]       0.00000000 [Eh]
    Translational E         0.889 [kcal/mol]        3.718 [kJ/mol]       0.00141628 [Eh]
    Rotational E            0.592 [kcal/mol]        2.479 [kJ/mol]       0.00094418 [Eh]
    Vibrational E           1.140 [kcal/mol]        4.771 [kJ/mol]       0.00181718 [Eh]
  Correction E              2.622 [kcal/mol]       10.968 [kJ/mol]       0.00417764 [Eh]
  Total E, Electronic energy at  298.15 [K]                           -796.32671179 [Eh]

  Enthalpy, H_trans = E_trans + k_B * T
    Electronic H            0.000 [kcal/mol]        0.000 [kJ/mol]       0.00000000 [Eh]
    Translational H         1.481 [kcal/mol]        6.197 [kJ/mol]       0.00236046 [Eh]
    Rotational H            0.592 [kcal/mol]        2.479 [kJ/mol]       0.00094418 [Eh]
    Vibrational H           1.140 [kcal/mol]        4.771 [kJ/mol]       0.00181718 [Eh]
  Correction H              3.214 [kcal/mol]       13.447 [kJ/mol]       0.00512183 [Eh]
  Total H, Enthalpy at  298.15 [K]                                    -796.32576760 [Eh]

  Gibbs free energy, G = H - T * S
    Electronic G            0.000 [kcal/mol]        0.000 [kJ/mol]       0.00000000 [Eh]
    Translational G        -9.963 [kcal/mol]      -41.686 [kJ/mol]      -0.01587754 [Eh]
    Rotational G           -3.474 [kcal/mol]      -14.536 [kJ/mol]      -0.00553644 [Eh]
    Vibrational G           1.067 [kcal/mol]        4.466 [kJ/mol]       0.00170084 [Eh]
  Correction G            -12.370 [kcal/mol]      -51.757 [kJ/mol]      -0.01971313 [Eh]
  Total G, Free enthalpy at  298.15 [K]                               -796.35060256 [Eh]

    Psi4 stopped on: Tuesday, 02 February 2021 11:38AM
    Psi4 wall time for execution: 0:09:47.47

*** Psi4 exiting successfully. Buy a developer a beer!
