                               Psi4 1.4a2.dev191

  ==> Input File <==

--------------------------------------------------------------------------
memory 16 GB

molecule  {
0 3
S
S 1 r1
S 1 r2 2 a1
S 2 r3 1 a2 3 d1
r1 = 2.051
r2 = 2.024
r3 = 2.024
a1 = 105.1
a2 = 105.1
d1 = 180.0
}

set {
reference uks
basis aug-cc-pvtz
g_convergence gau_verytight
dft_spherical_points 590
dft_radial_points 99
}

optimize('wb97x-d')
frequencies('wb97x-d')

--------------------------------------------------------------------------

    Molecular point group: c2h
  Charge       = 0
  Multiplicity = 3
  Basis Set: AUG-CC-PVTZ
    Blend: AUG-CC-PVTZ
  Basis Set: (AUG-CC-PVTZ AUX)
    Blend: AUG-CC-PVTZ-JKFIT
  @DF-UKS Final Energy: -1592.79005296153309
    Total Energy =                      -1592.7900529615330925
    Molecular point group: c2h
  Basis Set: AUG-CC-PVTZ
    Blend: AUG-CC-PVTZ
  Basis Set: (AUG-CC-PVTZ AUX)
    Blend: AUG-CC-PVTZ-JKFIT
  Basis Set: AUG-CC-PVTZ
    Blend: AUG-CC-PVTZ
  Basis Set: (AUG-CC-PVTZ AUX)
    Blend: AUG-CC-PVTZ-JKFIT
  @DF-UKS Final Energy: -1592.79574194485349
    Total Energy =                      -1592.7957419448532619
  Basis Set: AUG-CC-PVTZ
    Blend: AUG-CC-PVTZ
  Basis Set: (AUG-CC-PVTZ AUX)
    Blend: AUG-CC-PVTZ-JKFIT
  Basis Set: AUG-CC-PVTZ
    Blend: AUG-CC-PVTZ
  @DF-UKS Final Energy: -1592.79751467756682
    Total Energy =                      -1592.7975146775668236
  @DF-UKS Final Energy: -1592.79774876364877
    Total Energy =                      -1592.7977487636489968
  @DF-UKS Final Energy: -1592.79778867602022
    Total Energy =                      -1592.7977886760197634
  @DF-UKS Final Energy: -1592.79779264393346
    Total Energy =                      -1592.7977926439336898
  @DF-UKS Final Energy: -1592.79779272013548
    Total Energy =                      -1592.7977927201352486
  @DF-UKS Final Energy: -1592.79779272093469
    Total Energy =                      -1592.7977927209349218
  **** Optimization is complete! (in 8 steps) ****
    Final optimized geometry and variables:
  @DF-UKS Final Energy: -1592.79779272036376
    Total Energy =                      -1592.7977927203639865
  @DF-UKS Final Energy: -1592.79779272215956
    Total Energy =                      -1592.7977927221600112
  @DF-UKS Final Energy: -1592.79779253973948
    Total Energy =                      -1592.7977925397394756
  @DF-UKS Final Energy: -1592.79779264525791
    Total Energy =                      -1592.7977926452579140
  @DF-UKS Final Energy: -1592.79779263780961
    Total Energy =                      -1592.7977926378100619
  @DF-UKS Final Energy: -1592.79779261716067
    Total Energy =                      -1592.7977926171606669
  @DF-UKS Final Energy: -1592.79779270270592
    Total Energy =                      -1592.7977927027059195
  @DF-UKS Final Energy: -1592.79779256738084
    Total Energy =                      -1592.7977925673806112
  @DF-UKS Final Energy: -1592.79779271799498
    Total Energy =                      -1592.7977927179945254
  Basis Set: (AUG-CC-PVTZ AUX)
    Blend: AUG-CC-PVTZ-JKFIT
  Basis Set: AUG-CC-PVTZ
    Blend: AUG-CC-PVTZ
  Basis Set: (AUG-CC-PVTZ AUX)
    Blend: AUG-CC-PVTZ-JKFIT
  @DF-UKS Final Energy: -1592.79779254988262
    Total Energy =                      -1592.7977925498826153
  Basis Set: AUG-CC-PVTZ
    Blend: AUG-CC-PVTZ
  Basis Set: (AUG-CC-PVTZ AUX)
    Blend: AUG-CC-PVTZ-JKFIT
    Molecular point group: cs
  Charge       = 0
  Multiplicity = 3
  Basis Set: AUG-CC-PVTZ
    Blend: AUG-CC-PVTZ
  Basis Set: (AUG-CC-PVTZ AUX)
    Blend: AUG-CC-PVTZ-JKFIT

    Orbital Energies [Eh]
    ---------------------

    Alpha Occupied:

       1Ap   -89.145171     2Ap   -89.145159     3Ap   -89.097683
       4Ap   -89.097676     5Ap    -8.149228     6Ap    -8.149186
       7Ap    -8.104971     8Ap    -8.104970     9Ap    -6.097949
      10Ap    -6.097833    11Ap    -6.094153    12Ap    -6.094124
       1App   -6.094118     2App   -6.094101     3App   -6.055967
       4App   -6.055965    13Ap    -6.053534    14Ap    -6.053533
      15Ap    -6.044803    16Ap    -6.044802    17Ap    -0.977602
      18Ap    -0.920622    19Ap    -0.774793    20Ap    -0.706118
      21Ap    -0.531719    22Ap    -0.506711     5App   -0.500688
      23Ap    -0.451529     6App   -0.451316    24Ap    -0.388793
       7App   -0.353999    25Ap    -0.336727     8App   -0.314930

    Alpha Virtual:

      26Ap    -0.023110    27Ap     0.022843    28Ap     0.044238
      29Ap     0.066192    30Ap     0.072665    31Ap     0.074796
       9App    0.084544    32Ap     0.095602    33Ap     0.104064
      10App    0.105539    34Ap     0.107259    11App    0.109562
      35Ap     0.121626    36Ap     0.134290    12App    0.136038
      37Ap     0.166474    13App    0.172871    38Ap     0.182846
      14App    0.198192    39Ap     0.204809    40Ap     0.212068
      41Ap     0.231724    42Ap     0.249832    15App    0.261895
      16App    0.264384    43Ap     0.266102    44Ap     0.275208
      45Ap     0.286030    17App    0.299619    46Ap     0.305009
      47Ap     0.337964    18App    0.354927    48Ap     0.357794
      49Ap     0.375740    19App    0.378683    20App    0.383958
      50Ap     0.386920    51Ap     0.424400    52Ap     0.442246
      21App    0.448041    22App    0.506329    53Ap     0.525997
      54Ap     0.527991    23App    0.541802    24App    0.549937
      55Ap     0.555556    56Ap     0.557203    25App    0.557239
      57Ap     0.569806    58Ap     0.572337    26App    0.572941
      59Ap     0.582142    60Ap     0.588687    61Ap     0.598960
      27App    0.608548    62Ap     0.618170    63Ap     0.627075
      28App    0.640773    64Ap     0.655385    29App    0.658528
      65Ap     0.661490    66Ap     0.668673    67Ap     0.684192
      30App    0.688076    31App    0.717314    68Ap     0.733585
      32App    0.742745    69Ap     0.748486    33App    0.769367
      34App    0.770068    70Ap     0.773449    71Ap     0.779160
      72Ap     0.814927    35App    0.828156    73Ap     0.829316
      74Ap     0.838610    75Ap     0.849456    36App    0.907730
      76Ap     0.932979    77Ap     0.987854    78Ap     0.990177
      37App    1.001332    38App    1.018595    39App    1.019123
      79Ap     1.047289    80Ap     1.061204    40App    1.108116
      81Ap     1.140031    82Ap     1.140949    83Ap     1.159903
      41App    1.162200    84Ap     1.164054    42App    1.181309
      85Ap     1.215693    43App    1.216499    44App    1.238318
      86Ap     1.250587    87Ap     1.289616    88Ap     1.360795
      89Ap     1.375297    90Ap     1.416126    91Ap     1.483411
      92Ap     1.535008    45App    1.786838    93Ap     1.799972
      46App    1.819861    94Ap     1.830221    47App    1.833812
      95Ap     1.840177    96Ap     1.847683    48App    1.852542
      49App    1.865143    97Ap     1.882197    98Ap     1.888461
      50App    1.926811    99Ap     1.941495    51App    1.961650
     100Ap     1.970136   101Ap     1.987550    52App    1.998587
     102Ap     2.011856    53App    2.018529   103Ap     2.021424
      54App    2.031787    55App    2.036501   104Ap     2.056910
      56App    2.057352    57App    2.059261   105Ap     2.084950
     106Ap     2.110210    58App    2.134500   107Ap     2.157941
      59App    2.164161   108Ap     2.166857   109Ap     2.170269
     110Ap     2.176734    60App    2.204094    61App    2.210673
     111Ap     2.223494   112Ap     2.227016   113Ap     2.290794
      62App    2.291347   114Ap     2.319614    63App    2.326482
     115Ap     2.334517   116Ap     2.354556    64App    2.359716
      65App    2.363443   117Ap     2.391269   118Ap     2.416941
     119Ap     2.446983    66App    2.467704   120Ap     2.519475
     121Ap     2.620169    67App    2.628947   122Ap     2.633928
      68App    2.647458   123Ap     2.652975   124Ap     2.742222
     125Ap     2.757020   126Ap     3.499953   127Ap     3.696607
     128Ap     3.729087   129Ap     4.849618   130Ap     5.309700
     131Ap     5.607069   132Ap     5.871764

    Beta Occupied:

       1Ap   -89.143018     2Ap   -89.143006     3Ap   -89.093933
       4Ap   -89.093927     5Ap    -8.147004     6Ap    -8.146959
       7Ap    -8.101238     8Ap    -8.101236     9Ap    -6.096603
      10Ap    -6.096490    11Ap    -6.092903    12Ap    -6.092873
       1App   -6.086377     2App   -6.086361    13Ap    -6.051173
      14Ap    -6.051172     3App   -6.043226     4App   -6.043225
      15Ap    -6.042216    16Ap    -6.042215    17Ap    -0.963579
      18Ap    -0.904114    19Ap    -0.744241    20Ap    -0.675562
      21Ap    -0.522105    22Ap    -0.495235     5App   -0.457519
      23Ap    -0.441947     6App   -0.391851    24Ap    -0.378586
      25Ap    -0.326828

    Beta Virtual:

       7App   -0.103273     8App   -0.070497    26Ap    -0.015772
      27Ap     0.030343    28Ap     0.049989    29Ap     0.067077
      30Ap     0.073908    31Ap     0.080744     9App    0.088639
      32Ap     0.099495    33Ap     0.105188    34Ap     0.107789
      10App    0.111863    11App    0.116292    35Ap     0.123052
      36Ap     0.135966    12App    0.143871    37Ap     0.168329
      13App    0.180452    38Ap     0.183331    39Ap     0.207629
      14App    0.212117    40Ap     0.212733    41Ap     0.233571
      42Ap     0.253864    43Ap     0.269940    15App    0.272331
      16App    0.276776    44Ap     0.280749    45Ap     0.291115
      46Ap     0.310276    17App    0.311759    47Ap     0.339378
      18App    0.359393    48Ap     0.360255    49Ap     0.378195
      19App    0.386423    20App    0.387413    50Ap     0.388522
      51Ap     0.426348    52Ap     0.444740    21App    0.458474
      22App    0.510554    53Ap     0.527852    54Ap     0.530827
      23App    0.550600    55Ap     0.557192    24App    0.561332
      56Ap     0.561483    25App    0.567178    57Ap     0.574188
      58Ap     0.574903    26App    0.582912    59Ap     0.584132
      60Ap     0.593229    61Ap     0.606679    27App    0.618082
      62Ap     0.621761    63Ap     0.636232    28App    0.656890
      64Ap     0.659419    29App    0.666639    65Ap     0.673969
      66Ap     0.682401    67Ap     0.692321    30App    0.705067
      31App    0.731683    68Ap     0.738580    69Ap     0.753469
      32App    0.758994    33App    0.773347    34App    0.778771
      70Ap     0.780263    71Ap     0.782498    72Ap     0.816739
      35App    0.831567    73Ap     0.833613    74Ap     0.847044
      75Ap     0.852597    36App    0.913427    76Ap     0.938172
      77Ap     0.990754    78Ap     0.992466    37App    1.006555
      38App    1.023584    39App    1.023823    79Ap     1.050446
      80Ap     1.066315    40App    1.115733    81Ap     1.141624
      82Ap     1.143322    83Ap     1.161765    41App    1.166171
      84Ap     1.167699    42App    1.187241    85Ap     1.219179
      43App    1.227257    44App    1.248521    86Ap     1.254236
      87Ap     1.291443    88Ap     1.363163    89Ap     1.386563
      90Ap     1.428440    91Ap     1.490895    92Ap     1.545614
      45App    1.801575    93Ap     1.808314    46App    1.831414
      94Ap     1.840098    47App    1.850159    95Ap     1.857212
      96Ap     1.857608    48App    1.865338    49App    1.879106
      97Ap     1.889511    98Ap     1.891588    50App    1.942160
      99Ap     1.944908   100Ap     1.977198    51App    1.979918
     101Ap     1.995493    52App    2.015817   102Ap     2.023895
      53App    2.030862   103Ap     2.032568    54App    2.048286
      55App    2.058151   104Ap     2.070926    56App    2.072354
      57App    2.082916   105Ap     2.089943   106Ap     2.123937
      58App    2.152628   107Ap     2.172221   108Ap     2.175141
     109Ap     2.180877   110Ap     2.190379    59App    2.190713
      60App    2.225501    61App    2.230544   111Ap     2.232484
     112Ap     2.233194   113Ap     2.303800    62App    2.310764
     114Ap     2.331126    63App    2.339615   115Ap     2.347062
     116Ap     2.366968    64App    2.379430    65App    2.380162
     117Ap     2.396055   118Ap     2.423174   119Ap     2.456534
      66App    2.481741   120Ap     2.524916   121Ap     2.627159
     122Ap     2.640054    67App    2.648592   123Ap     2.656497
      68App    2.667421   124Ap     2.747149   125Ap     2.760936
     126Ap     3.505791   127Ap     3.700886   128Ap     3.733301
     129Ap     4.859800   130Ap     5.320429   131Ap     5.613865
     132Ap     5.877130

    Final Occupation by Irrep:
             Ap   App
    DOCC [    25,    6 ]
    SOCC [     0,    2 ]

  @DF-UKS Final Energy: -1592.79779270137396

   => Energetics <=

    Nuclear Repulsion Energy =            313.1115490455465533
    One-Electron Energy =               -2823.0021453452663991
    Two-Electron Energy =                 992.1059657859957497
    DFT Exchange-Correlation Energy =     -75.0126274413396743
    Empirical Dispersion Energy =          -0.0005347463102200
    VV10 Nonlocal Energy =                  0.0000000000000000
    Total Energy =                      -1592.7977927013737371

  UHF NO Occupations:
  HONO-2 :    6App 1.9976556
  HONO-1 :    7App 1.0000000
  HONO-0 :    8App 1.0000000
  LUNO+0 :    9App 0.0023444
  LUNO+1 :   10App 0.0011316
  LUNO+2 :   26 Ap 0.0007422
  LUNO+3 :   27 Ap 0.0007248

Computation Completed

Properties will be evaluated at   0.000000,   0.000000,   0.000000 [a0]

Properties computed using the SCF density matrix

  Nuclear Dipole Moment: [e a0]
     X:     0.0000      Y:     0.0000      Z:     0.0000

  Electronic Dipole Moment: [e a0]
     X:    -0.0000      Y:    -0.0003      Z:     0.0000

  Dipole Moment: [e a0]
     X:    -0.0000      Y:    -0.0003      Z:     0.0000     Total:     0.0003

  Dipole Moment: [D]
     X:    -0.0000      Y:    -0.0008      Z:     0.0000     Total:     0.0008

*** tstop() called on c1-15.compute.lan at Thu Feb 11 14:24:25 2021
Module time:
	user time   =      70.81 seconds =       1.18 minutes
	system time =       0.61 seconds =       0.01 minutes
	total time  =         72 seconds =       1.20 minutes
Total time:
	user time   =    1581.41 seconds =      26.36 minutes
	system time =      13.33 seconds =       0.22 minutes
	total time  =       1597 seconds =      26.62 minutes

*** tstart() called on c1-15.compute.lan
*** at Thu Feb 11 14:24:25 2021

         ------------------------------------------------------------
                                   SCF GRAD
                          Rob Parrish, Justin Turney,
                       Andy Simmonett, and Alex Sokolov
         ------------------------------------------------------------

  ==> Geometry <==

    Molecular point group: cs
    Full point group: Cs

    Geometry (in Angstrom), charge = 0, multiplicity = 3:

       Center              X                  Y                   Z               Mass
    ------------   -----------------  -----------------  -----------------  -----------------
         S            0.000000000000     1.086794694215     0.000000000000    31.972071174400
         S            0.000000000000    -1.087262629454     0.000000000000    31.972071174400
         S           -1.881794357743     1.559587992580     0.000000000000    31.972071174400
         S            1.881794357743    -1.559120057342     0.000000000000    31.972071174400

  Nuclear repulsion =  313.111549045546553

  ==> Basis Set <==

  Basis Set: AUG-CC-PVTZ
    Blend: AUG-CC-PVTZ
    Number of shells: 64
    Number of basis function: 200
    Number of Cartesian functions: 236
    Spherical Harmonics?: true
    Max angular momentum: 3

  ==> DFJKGrad: Density-Fitted SCF Gradients <==

    Gradient:                    1
    J tasked:                  Yes
    K tasked:                  Yes
    wK tasked:                 Yes
    Omega:               2.000E-01
    OpenMP threads:              1
    Integrals threads:           1
    Memory [MiB]:            11444
    Schwarz Cutoff:          0E+00
    Fitting Condition:       1E-10

   => Auxiliary Basis Set <=

  Basis Set: (AUG-CC-PVTZ AUX)
    Blend: AUG-CC-PVTZ-JKFIT
    Number of shells: 168
    Number of basis function: 584
    Number of Cartesian functions: 720
    Spherical Harmonics?: true
    Max angular momentum: 4

  ==> DFT Potential <==

   => Composite Functional: WB97X-D <=

    wB97X-D Hyb-GGA Exchange-Correlation Functional

    J.-D. Chai and M. Head-Gordon, Phys. Chem. Chem. Phys. 10, 6615 (2008)

    Deriv               =              1
    GGA                 =           TRUE
    Meta                =          FALSE

    Exchange Hybrid     =           TRUE
    MP2 Hybrid          =          FALSE

   => Exchange-Correlation Functionals <=

    1.0000   wB97D range-separated functional

   => Exact (HF) Exchange <=

    0.7780            HF,LR [omega = 0.2000]
    0.2220               HF

   => Molecular Quadrature <=

    Radial Scheme          =       TREUTLER
    Pruning Scheme         =           NONE
    Nuclear Scheme         =       TREUTLER

    BS radius alpha        =              1
    Pruning alpha          =              1
    Radial Points          =             99
    Spherical Points       =            590
    Total Points           =         225768
    Total Blocks           =           1845
    Max Points             =            256
    Max Functions          =            200
    Weights Tolerance      =       1.00E-15

  -Total Gradient:
     Atom            X                  Y                   Z
    ------   -----------------  -----------------  -----------------
       1        0.000049978828    -0.000020996752     0.000000000000
       2        0.000055215145    -0.000020944020     0.000000000000
       3       -0.000056166138     0.000016496382     0.000000000000
       4       -0.000048663211     0.000025367275     0.000000000000

*** tstop() called on c1-15.compute.lan at Thu Feb 11 14:24:49 2021
Module time:
	user time   =      24.00 seconds =       0.40 minutes
	system time =       0.21 seconds =       0.00 minutes
	total time  =         24 seconds =       0.40 minutes
Total time:
	user time   =    1605.41 seconds =      26.76 minutes
	system time =      13.54 seconds =       0.23 minutes
	total time  =       1621 seconds =      27.02 minutes

         ----------------------------------------------------------
                                   FINDIF
                     R. A. King and Jonathon Misiewicz
         ---------------------------------------------------------

  Computing second-derivative from gradients using projected,
  symmetry-adapted, cartesian coordinates.

  10 gradients passed in, including the reference geometry.
  Generating complete list of displacements from unique ones.

    Operation 3 takes plus displacements of irrep Au to minus ones.
    Operation 2 takes plus displacements of irrep Bu to minus ones.

-------------------------------------------------------------

  ==> Harmonic Vibrational Analysis <==

  non-mass-weighted Hessian:       Symmetric? True   Hermitian? True   Lin Dep Dim?  6 (0)
  projection of translations (True) and rotations (True) removed 6 degrees of freedom (6)
  total projector:                 Symmetric? True   Hermitian? True   Lin Dep Dim?  6 (6)
  mass-weighted Hessian:           Symmetric? True   Hermitian? True   Lin Dep Dim?  6 (0)
  pre-proj  low-frequency mode:    0.0000i [cm^-1]
  pre-proj  low-frequency mode:    0.0000i [cm^-1]
  pre-proj  low-frequency mode:    0.0000i [cm^-1]
  pre-proj  low-frequency mode:    0.0000i [cm^-1]
  pre-proj  low-frequency mode:    0.0000i [cm^-1]
  pre-proj  low-frequency mode:    0.0000i [cm^-1]
  pre-proj  low-frequency mode:   30.4170  [cm^-1]
  pre-proj  all modes:['0.0000i' '0.0000i' '0.0000i' '0.0000i' '0.0000i' '0.0000i' '30.4170'
 '108.6093' '204.3645' '456.0084' '625.1953' '633.1731']
  projected mass-weighted Hessian: Symmetric? True   Hermitian? True   Lin Dep Dim?  6 (6)
  post-proj low-frequency mode:    0.0000i [cm^-1] (TR)
  post-proj low-frequency mode:    0.0000i [cm^-1] (TR)
  post-proj low-frequency mode:    0.0000i [cm^-1] (TR)
  post-proj low-frequency mode:    0.0000i [cm^-1] (TR)
  post-proj low-frequency mode:    0.0000  [cm^-1] (TR)
  post-proj low-frequency mode:    0.0000  [cm^-1] (TR)
  post-proj low-frequency mode:   30.4170  [cm^-1] (V)
  post-proj  all modes:['0.0000i' '0.0000i' '0.0000i' '0.0000i' '0.0000' '0.0000' '30.4170'
 '108.6093' '204.3645' '456.0084' '625.1953' '633.1731']

  Vibration                       7                   8                   9
  Freq [cm^-1]                 30.4170             108.6093            204.3645
  Irrep                           Au                  Bu                  Ag
  Reduced mass [u]             31.9721             31.9721             31.9721
  Force const [mDyne/A]         0.0174              0.2222              0.7867
  Turning point v=0 [a0]        0.3519              0.1862              0.1357
  RMS dev v=0 [a0 u^1/2]        1.4068              0.7445              0.5427
  Char temp [K]                43.7633             156.2646            294.0350
  ----------------------------------------------------------------------------------
      1   S               -0.00 -0.00  0.50    0.13  0.48 -0.00   -0.38  0.20 -0.00
      2   S               -0.00 -0.00  0.50    0.13  0.48 -0.00    0.38 -0.20  0.00
      3   S               -0.00  0.00 -0.50   -0.13 -0.48  0.00   -0.31  0.47  0.00
      4   S               -0.00 -0.00 -0.50   -0.13 -0.48  0.00    0.31 -0.47 -0.00

  Vibration                       10                  11                  12
  Freq [cm^-1]                 456.0084            625.1953            633.1731
  Irrep                           Ag                  Bu                  Ag
  Reduced mass [u]             31.9721             31.9721             31.9721
  Force const [mDyne/A]         3.9171              7.3630              7.5521
  Turning point v=0 [a0]        0.0909              0.0776              0.0771
  RMS dev v=0 [a0 u^1/2]        0.3633              0.3103              0.3083
  Char temp [K]                656.0946            899.5168            910.9951
  ----------------------------------------------------------------------------------
      1   S                0.11  0.68 -0.00    0.48 -0.13  0.00    0.51  0.00  0.00
      2   S               -0.11 -0.68 -0.00    0.48 -0.13  0.00   -0.51 -0.00 -0.00
      3   S                0.09 -0.14 -0.00   -0.48  0.13  0.00   -0.48  0.10 -0.00
      4   S               -0.09  0.14  0.00   -0.48  0.13 -0.00    0.48 -0.10  0.00

  ==> Thermochemistry Components <==

  Entropy, S
    Electronic S            2.183 [cal/(mol K)]        9.134 [J/(mol K)]       0.00347910 [mEh/K] (multiplicity = 3)
    Translational S        40.451 [cal/(mol K)]      169.248 [J/(mol K)]       0.06446314 [mEh/K] (mol. weight = 127.8883 [u], P = 101325.00 [Pa])
    Rotational S           25.991 [cal/(mol K)]      108.747 [J/(mol K)]       0.04141956 [mEh/K] (symmetry no. = 2)
    Vibrational S          12.771 [cal/(mol K)]       53.435 [J/(mol K)]       0.02035219 [mEh/K]
  Total S                  81.397 [cal/(mol K)]      340.564 [J/(mol K)]       0.12971399 [mEh/K]
  Correction S              0.000 [cal/(mol K)]        0.000 [J/(mol K)]       0.00000000 [mEh/K]

  Constant volume heat capacity, Cv
    Electronic Cv           0.000 [cal/(mol K)]        0.000 [J/(mol K)]       0.00000000 [mEh/K]
    Translational Cv        2.981 [cal/(mol K)]       12.472 [J/(mol K)]       0.00475022 [mEh/K]
    Rotational Cv           2.981 [cal/(mol K)]       12.472 [J/(mol K)]       0.00475022 [mEh/K]
    Vibrational Cv          9.048 [cal/(mol K)]       37.859 [J/(mol K)]       0.01441962 [mEh/K]
  Total Cv                 15.010 [cal/(mol K)]       62.802 [J/(mol K)]       0.02392005 [mEh/K]
  Correction Cv             0.000 [cal/(mol K)]        0.000 [J/(mol K)]       0.00000000 [mEh/K]

  Constant pressure heat capacity, Cp
    Electronic Cp           0.000 [cal/(mol K)]        0.000 [J/(mol K)]       0.00000000 [mEh/K]
    Translational Cp        4.968 [cal/(mol K)]       20.786 [J/(mol K)]       0.00791703 [mEh/K]
    Rotational Cp           2.981 [cal/(mol K)]       12.472 [J/(mol K)]       0.00475022 [mEh/K]
    Vibrational Cp          9.048 [cal/(mol K)]       37.859 [J/(mol K)]       0.01441962 [mEh/K]
  Total Cp                 16.997 [cal/(mol K)]       71.117 [J/(mol K)]       0.02708686 [mEh/K]
  Correction Cp             0.000 [cal/(mol K)]        0.000 [J/(mol K)]       0.00000000 [mEh/K]

  ==> Thermochemistry Energy Analysis <==

  Raw electronic energy, E0
  Total E0, Electronic energy at well bottom at 0 [K]                -1592.79779272 [Eh]

  Zero-point energy, ZPE_vib = Sum_i nu_i / 2
    Electronic ZPE          0.000 [kcal/mol]        0.000 [kJ/mol]       0.00000000 [Eh]
    Translational ZPE       0.000 [kcal/mol]        0.000 [kJ/mol]       0.00000000 [Eh]
    Rotational ZPE          0.000 [kcal/mol]        0.000 [kJ/mol]       0.00000000 [Eh]
    Vibrational ZPE         2.942 [kcal/mol]       12.308 [kJ/mol]       0.00468794 [Eh]        1028.884 [cm^-1]
  Correction ZPE            2.942 [kcal/mol]       12.308 [kJ/mol]       0.00468794 [Eh]        1028.884 [cm^-1]
  Total ZPE, Electronic energy at 0 [K]                              -1592.79310478 [Eh]

  Thermal Energy, E (includes ZPE)
    Electronic E            0.000 [kcal/mol]        0.000 [kJ/mol]       0.00000000 [Eh]
    Translational E         0.889 [kcal/mol]        3.718 [kJ/mol]       0.00141628 [Eh]
    Rotational E            0.889 [kcal/mol]        3.718 [kJ/mol]       0.00141628 [Eh]
    Vibrational E           4.634 [kcal/mol]       19.388 [kJ/mol]       0.00738467 [Eh]
  Correction E              6.411 [kcal/mol]       26.825 [kJ/mol]       0.01021722 [Eh]
  Total E, Electronic energy at  298.15 [K]                          -1592.78757550 [Eh]

  Enthalpy, H_trans = E_trans + k_B * T
    Electronic H            0.000 [kcal/mol]        0.000 [kJ/mol]       0.00000000 [Eh]
    Translational H         1.481 [kcal/mol]        6.197 [kJ/mol]       0.00236046 [Eh]
    Rotational H            0.889 [kcal/mol]        3.718 [kJ/mol]       0.00141628 [Eh]
    Vibrational H           4.634 [kcal/mol]       19.388 [kJ/mol]       0.00738467 [Eh]
  Correction H              7.004 [kcal/mol]       29.304 [kJ/mol]       0.01116140 [Eh]
  Total H, Enthalpy at  298.15 [K]                                   -1592.78663132 [Eh]

  Gibbs free energy, G = H - T * S
    Electronic G           -0.651 [kcal/mol]       -2.723 [kJ/mol]      -0.00103729 [Eh]
    Translational G       -10.579 [kcal/mol]      -44.264 [kJ/mol]      -0.01685922 [Eh]
    Rotational G           -6.861 [kcal/mol]      -28.704 [kJ/mol]      -0.01093297 [Eh]
    Vibrational G           0.826 [kcal/mol]        3.457 [kJ/mol]       0.00131666 [Eh]
  Correction G            -17.265 [kcal/mol]      -72.235 [kJ/mol]      -0.02751282 [Eh]
  Total G, Free enthalpy at  298.15 [K]                              -1592.82530554 [Eh]

*** Psi4 exiting successfully. Buy a developer a beer!
