                               Psi4 1.4a2.dev191

  ==> Input File <==

--------------------------------------------------------------------------
memory 10 GB

molecule  {
-2 1
S
S 1 r1
r1 = 2.0
}

set {
reference uks
basis aug-cc-pvtz
g_convergence gau_verytight
dft_spherical_points 590
dft_radial_points 99
}

optimize('wb97x-d')
frequencies('wb97x-d')

--------------------------------------------------------------------------

    Molecular point group: d2h
  Charge       = -2
  Multiplicity = 1
  Basis Set: AUG-CC-PVTZ
    Blend: AUG-CC-PVTZ
  Basis Set: (AUG-CC-PVTZ AUX)
    Blend: AUG-CC-PVTZ-JKFIT
  @DF-UKS Final Energy:  -796.31026903828888
    Total Energy =                       -796.3102690382888795
    Molecular point group: d2h
  Basis Set: AUG-CC-PVTZ
    Blend: AUG-CC-PVTZ
  Basis Set: (AUG-CC-PVTZ AUX)
    Blend: AUG-CC-PVTZ-JKFIT
  Basis Set: AUG-CC-PVTZ
    Blend: AUG-CC-PVTZ
  Basis Set: (AUG-CC-PVTZ AUX)
    Blend: AUG-CC-PVTZ-JKFIT
  @DF-UKS Final Energy:  -796.31543464870128
    Total Energy =                       -796.3154346487012845
  Basis Set: AUG-CC-PVTZ
    Blend: AUG-CC-PVTZ
  Basis Set: (AUG-CC-PVTZ AUX)
    Blend: AUG-CC-PVTZ-JKFIT
  Basis Set: AUG-CC-PVTZ
    Blend: AUG-CC-PVTZ
  @DF-UKS Final Energy:  -796.31707861989855
    Total Energy =                       -796.3170786198984388
  @DF-UKS Final Energy:  -796.31719341664348
    Total Energy =                       -796.3171934166434767
  @DF-UKS Final Energy:  -796.31720255776338
    Total Energy =                       -796.3172025577632667
  @DF-UKS Final Energy:  -796.31720279086699
    Total Energy =                       -796.3172027908669861
  @DF-UKS Final Energy:  -796.31720279139950
    Total Energy =                       -796.3172027913994953
  **** Optimization is complete! (in 7 steps) ****
    Final optimized geometry and variables:
  @DF-UKS Final Energy:  -796.31720279139972
    Total Energy =                       -796.3172027913997226
  @DF-UKS Final Energy:  -796.31720279139915
    Total Energy =                       -796.3172027913991542
  Basis Set: (AUG-CC-PVTZ AUX)
    Blend: AUG-CC-PVTZ-JKFIT
  Basis Set: AUG-CC-PVTZ
    Blend: AUG-CC-PVTZ
  Basis Set: (AUG-CC-PVTZ AUX)
    Blend: AUG-CC-PVTZ-JKFIT
  @DF-UKS Final Energy:  -796.31720270414871
    Total Energy =                       -796.3172027041484853
  Basis Set: AUG-CC-PVTZ
    Blend: AUG-CC-PVTZ
  Basis Set: (AUG-CC-PVTZ AUX)
    Blend: AUG-CC-PVTZ-JKFIT
    Molecular point group: d2h
  Charge       = -2
  Multiplicity = 1
  Basis Set: AUG-CC-PVTZ
    Blend: AUG-CC-PVTZ
  Basis Set: (AUG-CC-PVTZ AUX)
    Blend: AUG-CC-PVTZ-JKFIT

    Orbital Energies [Eh]
    ---------------------

    Alpha Occupied:

       1B1u  -88.638115     1Ag   -88.638107     2Ag    -7.642915
       2B1u   -7.642878     3Ag    -5.593981     3B1u   -5.593826
       1B3u   -5.586020     1B2u   -5.586020     1B2g   -5.586013
       1B3g   -5.586013     4Ag    -0.411557     4B1u   -0.269934
       5Ag    -0.005343     2B3u    0.027791     2B2u    0.027791
       2B3g    0.123810     2B2g    0.123810

    Alpha Virtual:

       5B1u    0.278443     6Ag     0.343285     3B2u    0.362216
       3B3u    0.362216     3B2g    0.367985     3B3g    0.367985
       7Ag     0.415543     6B1u    0.419741     7B1u    0.505684
       1B1g    0.557779     8Ag     0.557779     4B2u    0.604567
       4B3u    0.604567     9Ag     0.636046     1Au     0.639702
       8B1u    0.639702     9B1u    0.678331     4B3g    0.693181
       4B2g    0.693181     5B3u    0.844559     5B2u    0.844559
      10B1u    0.926534     5B3g    0.940646     5B2g    0.940646
      10Ag     0.947117     6B2u    0.958329     6B3u    0.958329
      11Ag     0.981447     2B1g    1.004370    12Ag     1.004371
      13Ag     1.038935     2Au     1.072839    11B1u    1.072839
       7B2u    1.116773     7B3u    1.116773     6B3g    1.127750
       6B2g    1.127750     3B1g    1.160911    14Ag     1.160911
      12B1u    1.205218     7B3g    1.239876     7B2g    1.239876
       8B2u    1.381749     8B3u    1.381749    13B1u    1.398548
       3Au     1.419920    14B1u    1.419920     8B3g    1.592907
       8B2g    1.592907    15Ag     1.632419    15B1u    1.850617
      16Ag     2.226702     4B1g    2.226704     9B3u    2.277742
       9B2u    2.277742    16B1u    2.292649     4Au     2.292651
      17B1u    2.309031     9B2g    2.428848     9B3g    2.428848
      17Ag     2.435929    10B2u    2.471383    10B3u    2.471383
      11B3u    2.527153    11B2u    2.527153    18Ag     2.540643
       5B1g    2.544267    19Ag     2.544272    12B3u    2.564670
      12B2u    2.564670    10B2g    2.610416    10B3g    2.610416
      11B3g    2.668970    11B2g    2.668970     5Au     2.695264
      18B1u    2.695270    20Ag     2.714399    19B1u    2.787626
      12B3g    2.942993    12B2g    2.942993    20B1u    3.922196
      21Ag     4.696909    21B1u    5.697905

    Beta Occupied:

       1B1u  -88.638115     1Ag   -88.638107     2Ag    -7.642915
       2B1u   -7.642878     3Ag    -5.593981     3B1u   -5.593826
       1B3u   -5.586020     1B2u   -5.586020     1B2g   -5.586013
       1B3g   -5.586013     4Ag    -0.411557     4B1u   -0.269934
       5Ag    -0.005343     2B3u    0.027791     2B2u    0.027791
       2B3g    0.123810     2B2g    0.123810

    Beta Virtual:

       5B1u    0.278443     6Ag     0.343285     3B2u    0.362216
       3B3u    0.362216     3B2g    0.367985     3B3g    0.367985
       7Ag     0.415543     6B1u    0.419741     7B1u    0.505684
       1B1g    0.557779     8Ag     0.557779     4B2u    0.604567
       4B3u    0.604567     9Ag     0.636046     1Au     0.639702
       8B1u    0.639702     9B1u    0.678331     4B3g    0.693181
       4B2g    0.693181     5B3u    0.844559     5B2u    0.844559
      10B1u    0.926534     5B3g    0.940646     5B2g    0.940646
      10Ag     0.947117     6B2u    0.958329     6B3u    0.958329
      11Ag     0.981447     2B1g    1.004370    12Ag     1.004371
      13Ag     1.038935     2Au     1.072839    11B1u    1.072839
       7B2u    1.116773     7B3u    1.116773     6B3g    1.127750
       6B2g    1.127750     3B1g    1.160911    14Ag     1.160911
      12B1u    1.205218     7B3g    1.239876     7B2g    1.239876
       8B2u    1.381749     8B3u    1.381749    13B1u    1.398548
       3Au     1.419920    14B1u    1.419920     8B3g    1.592907
       8B2g    1.592907    15Ag     1.632419    15B1u    1.850617
      16Ag     2.226702     4B1g    2.226704     9B3u    2.277742
       9B2u    2.277742    16B1u    2.292649     4Au     2.292651
      17B1u    2.309031     9B2g    2.428848     9B3g    2.428848
      17Ag     2.435929    10B2u    2.471383    10B3u    2.471383
      11B3u    2.527153    11B2u    2.527153    18Ag     2.540643
       5B1g    2.544267    19Ag     2.544272    12B3u    2.564670
      12B2u    2.564670    10B2g    2.610416    10B3g    2.610416
      11B3g    2.668970    11B2g    2.668970     5Au     2.695264
      18B1u    2.695270    20Ag     2.714399    19B1u    2.787626
      12B3g    2.942993    12B2g    2.942993    20B1u    3.922196
      21Ag     4.696909    21B1u    5.697905

    Final Occupation by Irrep:
             Ag   B1g   B2g   B3g    Au   B1u   B2u   B3u
    DOCC [     5,    0,    2,    2,    0,    4,    2,    2 ]
    SOCC [     0,    0,    0,    0,    0,    0,    0,    0 ]

  @DF-UKS Final Energy:  -796.31720269264395

   => Energetics <=

    Nuclear Repulsion Energy =             62.6794916681791534
    One-Electron Energy =               -1239.1697770258460878
    Two-Electron Energy =                 417.7982736387757541
    DFT Exchange-Correlation Energy =     -37.6251739497828339
    Empirical Dispersion Energy =          -0.0000170239697686
    VV10 Nonlocal Energy =                  0.0000000000000000
    Total Energy =                       -796.3172026926437184

  UHF NO Occupations:
  HONO-2 :    3B1u 2.0000000
  HONO-1 :    4B1u 2.0000000
  HONO-0 :    5 Ag 2.0000000
  LUNO+0 :    5B1u 0.0000000
  LUNO+1 :    3B2g 0.0000000
  LUNO+2 :    6 Ag 0.0000000
  LUNO+3 :    6B1u 0.0000000

Computation Completed

Properties will be evaluated at   0.000000,   0.000000,   0.000000 [a0]

Properties computed using the SCF density matrix

  Nuclear Dipole Moment: [e a0]
     X:     0.0000      Y:     0.0000      Z:     0.0000

  Electronic Dipole Moment: [e a0]
     X:     0.0000      Y:     0.0000      Z:     0.0000

  Dipole Moment: [e a0]
     X:     0.0000      Y:     0.0000      Z:     0.0000     Total:     0.0000

  Dipole Moment: [D]
     X:     0.0000      Y:     0.0000      Z:     0.0000     Total:     0.0000

*** tstop() called on c1-9.compute.lan at Tue Feb  2 11:31:13 2021
Module time:
	user time   =      11.99 seconds =       0.20 minutes
	system time =       0.11 seconds =       0.00 minutes
	total time  =         12 seconds =       0.20 minutes
Total time:
	user time   =     149.78 seconds =       2.50 minutes
	system time =       1.69 seconds =       0.03 minutes
	total time  =        152 seconds =       2.53 minutes

*** tstart() called on c1-9.compute.lan
*** at Tue Feb  2 11:31:13 2021

         ------------------------------------------------------------
                                   SCF GRAD
                          Rob Parrish, Justin Turney,
                       Andy Simmonett, and Alex Sokolov
         ------------------------------------------------------------

  ==> Geometry <==

    Molecular point group: d2h
    Full point group: D_inf_h

    Geometry (in Angstrom), charge = -2, multiplicity = 1:

       Center              X                  Y                   Z               Mass
    ------------   -----------------  -----------------  -----------------  -----------------
         S            0.000000000000     0.000000000000    -1.080651440576    31.972071174400
         S            0.000000000000     0.000000000000     1.080651440576    31.972071174400

  Nuclear repulsion =   62.679491668179153

  ==> Basis Set <==

  Basis Set: AUG-CC-PVTZ
    Blend: AUG-CC-PVTZ
    Number of shells: 32
    Number of basis function: 100
    Number of Cartesian functions: 118
    Spherical Harmonics?: true
    Max angular momentum: 3

  ==> DFJKGrad: Density-Fitted SCF Gradients <==

    Gradient:                    1
    J tasked:                  Yes
    K tasked:                  Yes
    wK tasked:                 Yes
    Omega:               2.000E-01
    OpenMP threads:              1
    Integrals threads:           1
    Memory [MiB]:             7152
    Schwarz Cutoff:          0E+00
    Fitting Condition:       1E-10

   => Auxiliary Basis Set <=

  Basis Set: (AUG-CC-PVTZ AUX)
    Blend: AUG-CC-PVTZ-JKFIT
    Number of shells: 84
    Number of basis function: 292
    Number of Cartesian functions: 360
    Spherical Harmonics?: true
    Max angular momentum: 4

  ==> DFT Potential <==

   => Composite Functional: WB97X-D <=

    wB97X-D Hyb-GGA Exchange-Correlation Functional

    J.-D. Chai and M. Head-Gordon, Phys. Chem. Chem. Phys. 10, 6615 (2008)

    Deriv               =              1
    GGA                 =           TRUE
    Meta                =          FALSE

    Exchange Hybrid     =           TRUE
    MP2 Hybrid          =          FALSE

   => Exchange-Correlation Functionals <=

    1.0000   wB97D range-separated functional

   => Exact (HF) Exchange <=

    0.7780            HF,LR [omega = 0.2000]
    0.2220               HF

   => Molecular Quadrature <=

    Radial Scheme          =       TREUTLER
    Pruning Scheme         =           NONE
    Nuclear Scheme         =       TREUTLER

    BS radius alpha        =              1
    Pruning alpha          =              1
    Radial Points          =             99
    Spherical Points       =            590
    Total Points           =         113420
    Total Blocks           =            980
    Max Points             =            256
    Max Functions          =            100
    Weights Tolerance      =       1.00E-15

  -Total Gradient:
     Atom            X                  Y                   Z
    ------   -----------------  -----------------  -----------------
       1       -0.000000000000     0.000000000000     0.000149345195
       2        0.000000000000     0.000000000000    -0.000149345195

*** tstop() called on c1-9.compute.lan at Tue Feb  2 11:31:17 2021
Module time:
	user time   =       4.10 seconds =       0.07 minutes
	system time =       0.04 seconds =       0.00 minutes
	total time  =          4 seconds =       0.07 minutes
Total time:
	user time   =     153.88 seconds =       2.56 minutes
	system time =       1.73 seconds =       0.03 minutes
	total time  =        156 seconds =       2.60 minutes

         ----------------------------------------------------------
                                   FINDIF
                     R. A. King and Jonathon Misiewicz
         ---------------------------------------------------------

  Computing second-derivative from gradients using projected,
  symmetry-adapted, cartesian coordinates.

  3 gradients passed in, including the reference geometry.
  Generating complete list of displacements from unique ones.

-------------------------------------------------------------

  ==> Harmonic Vibrational Analysis <==

  non-mass-weighted Hessian:       Symmetric? True   Hermitian? True   Lin Dep Dim?  5 (0)
  projection of translations (True) and rotations (True) removed 5 degrees of freedom (5)
  total projector:                 Symmetric? True   Hermitian? True   Lin Dep Dim?  5 (5)
  mass-weighted Hessian:           Symmetric? True   Hermitian? True   Lin Dep Dim?  5 (0)
  pre-proj  low-frequency mode:    0.0000  [cm^-1]
  pre-proj  low-frequency mode:    0.0000  [cm^-1]
  pre-proj  low-frequency mode:    0.0000  [cm^-1]
  pre-proj  low-frequency mode:    0.0000  [cm^-1]
  pre-proj  low-frequency mode:    0.0000  [cm^-1]
  pre-proj  all modes:['0.0000' '0.0000' '0.0000' '0.0000' '0.0000' '443.8588']
  projected mass-weighted Hessian: Symmetric? True   Hermitian? True   Lin Dep Dim?  5 (5)
  post-proj low-frequency mode:    0.0000  [cm^-1] (TR)
  post-proj low-frequency mode:    0.0000  [cm^-1] (TR)
  post-proj low-frequency mode:    0.0000  [cm^-1] (TR)
  post-proj low-frequency mode:    0.0000  [cm^-1] (TR)
  post-proj low-frequency mode:    0.0000  [cm^-1] (TR)
  post-proj  all modes:['0.0000' '0.0000' '0.0000' '0.0000' '0.0000' '443.8588']

  Vibration                       6
  Freq [cm^-1]                 443.8588
  Irrep                           Ag
  Reduced mass [u]             31.9721
  Force const [mDyne/A]         3.7112
  Turning point v=0 [a0]        0.0921
  RMS dev v=0 [a0 u^1/2]        0.3683
  Char temp [K]                638.6139
  ----------------------------------------------------------------------------------
      1   S                0.00  0.00  0.71
      2   S                0.00  0.00 -0.71

  ==> Thermochemistry Components <==

  Entropy, S
    Electronic S            0.000 [cal/(mol K)]        0.000 [J/(mol K)]       0.00000000 [mEh/K] (multiplicity = 1)
    Translational S        38.385 [cal/(mol K)]      160.603 [J/(mol K)]       0.06117054 [mEh/K] (mol. weight = 63.9441 [u], P = 101325.00 [Pa])
    Rotational S           14.168 [cal/(mol K)]       59.279 [J/(mol K)]       0.02257810 [mEh/K] (symmetry no. = 2)
    Vibrational S           0.815 [cal/(mol K)]        3.408 [J/(mol K)]       0.00129809 [mEh/K]
  Total S                  53.368 [cal/(mol K)]      223.290 [J/(mol K)]       0.08504673 [mEh/K]
  Correction S              0.000 [cal/(mol K)]        0.000 [J/(mol K)]       0.00000000 [mEh/K]

  Constant volume heat capacity, Cv
    Electronic Cv           0.000 [cal/(mol K)]        0.000 [J/(mol K)]       0.00000000 [mEh/K]
    Translational Cv        2.981 [cal/(mol K)]       12.472 [J/(mol K)]       0.00475022 [mEh/K]
    Rotational Cv           1.987 [cal/(mol K)]        8.314 [J/(mol K)]       0.00316681 [mEh/K]
    Vibrational Cv          1.374 [cal/(mol K)]        5.751 [J/(mol K)]       0.00219031 [mEh/K]
  Total Cv                  6.342 [cal/(mol K)]       26.537 [J/(mol K)]       0.01010733 [mEh/K]
  Correction Cv             0.000 [cal/(mol K)]        0.000 [J/(mol K)]       0.00000000 [mEh/K]

  Constant pressure heat capacity, Cp
    Electronic Cp           0.000 [cal/(mol K)]        0.000 [J/(mol K)]       0.00000000 [mEh/K]
    Translational Cp        4.968 [cal/(mol K)]       20.786 [J/(mol K)]       0.00791703 [mEh/K]
    Rotational Cp           1.987 [cal/(mol K)]        8.314 [J/(mol K)]       0.00316681 [mEh/K]
    Vibrational Cp          1.374 [cal/(mol K)]        5.751 [J/(mol K)]       0.00219031 [mEh/K]
  Total Cp                  8.330 [cal/(mol K)]       34.851 [J/(mol K)]       0.01327414 [mEh/K]
  Correction Cp             0.000 [cal/(mol K)]        0.000 [J/(mol K)]       0.00000000 [mEh/K]

  ==> Thermochemistry Energy Analysis <==

  Raw electronic energy, E0
  Total E0, Electronic energy at well bottom at 0 [K]                 -796.31720279 [Eh]

  Zero-point energy, ZPE_vib = Sum_i nu_i / 2
    Electronic ZPE          0.000 [kcal/mol]        0.000 [kJ/mol]       0.00000000 [Eh]
    Translational ZPE       0.000 [kcal/mol]        0.000 [kJ/mol]       0.00000000 [Eh]
    Rotational ZPE          0.000 [kcal/mol]        0.000 [kJ/mol]       0.00000000 [Eh]
    Vibrational ZPE         0.635 [kcal/mol]        2.655 [kJ/mol]       0.00101118 [Eh]         221.929 [cm^-1]
  Correction ZPE            0.635 [kcal/mol]        2.655 [kJ/mol]       0.00101118 [Eh]         221.929 [cm^-1]
  Total ZPE, Electronic energy at 0 [K]                               -796.31619161 [Eh]

  Thermal Energy, E (includes ZPE)
    Electronic E            0.000 [kcal/mol]        0.000 [kJ/mol]       0.00000000 [Eh]
    Translational E         0.889 [kcal/mol]        3.718 [kJ/mol]       0.00141628 [Eh]
    Rotational E            0.592 [kcal/mol]        2.479 [kJ/mol]       0.00094418 [Eh]
    Vibrational E           0.803 [kcal/mol]        3.361 [kJ/mol]       0.00128027 [Eh]
  Correction E              2.285 [kcal/mol]        9.559 [kJ/mol]       0.00364073 [Eh]
  Total E, Electronic energy at  298.15 [K]                           -796.31356206 [Eh]

  Enthalpy, H_trans = E_trans + k_B * T
    Electronic H            0.000 [kcal/mol]        0.000 [kJ/mol]       0.00000000 [Eh]
    Translational H         1.481 [kcal/mol]        6.197 [kJ/mol]       0.00236046 [Eh]
    Rotational H            0.592 [kcal/mol]        2.479 [kJ/mol]       0.00094418 [Eh]
    Vibrational H           0.803 [kcal/mol]        3.361 [kJ/mol]       0.00128027 [Eh]
  Correction H              2.877 [kcal/mol]       12.038 [kJ/mol]       0.00458491 [Eh]
  Total H, Enthalpy at  298.15 [K]                                    -796.31261788 [Eh]

  Gibbs free energy, G = H - T * S
    Electronic G            0.000 [kcal/mol]        0.000 [kJ/mol]       0.00000000 [Eh]
    Translational G        -9.963 [kcal/mol]      -41.686 [kJ/mol]      -0.01587754 [Eh]
    Rotational G           -3.632 [kcal/mol]      -15.195 [kJ/mol]      -0.00578748 [Eh]
    Vibrational G           0.561 [kcal/mol]        2.345 [kJ/mol]       0.00089324 [Eh]
  Correction G            -13.034 [kcal/mol]      -54.536 [kJ/mol]      -0.02077177 [Eh]
  Total G, Free enthalpy at  298.15 [K]                               -796.33797456 [Eh]

    Psi4 stopped on: Tuesday, 02 February 2021 11:31AM
    Psi4 wall time for execution: 0:02:36.00

*** Psi4 exiting successfully. Buy a developer a beer!
