                               Psi4 1.4a2.dev191

  ==> Input File <==

--------------------------------------------------------------------------
memory 10 GB

molecule  {
-1 4
S
S 1 r1
r1 = 2.0
}

set {
reference uks
basis aug-cc-pvtz
g_convergence gau_verytight
dft_spherical_points 590
dft_radial_points 99
}

optimize('wb97x-d')
frequencies('wb97x-d')

--------------------------------------------------------------------------

    Molecular point group: d2h
  Charge       = -1
  Multiplicity = 4
  Basis Set: AUG-CC-PVTZ
    Blend: AUG-CC-PVTZ
  Basis Set: (AUG-CC-PVTZ AUX)
    Blend: AUG-CC-PVTZ-JKFIT
  @DF-UKS Final Energy:  -796.36046236877974
    Total Energy =                       -796.3604623687797357
    Molecular point group: d2h
  Basis Set: AUG-CC-PVTZ
    Blend: AUG-CC-PVTZ
  Basis Set: (AUG-CC-PVTZ AUX)
    Blend: AUG-CC-PVTZ-JKFIT
  Basis Set: AUG-CC-PVTZ
    Blend: AUG-CC-PVTZ
  Basis Set: (AUG-CC-PVTZ AUX)
    Blend: AUG-CC-PVTZ-JKFIT
  @DF-UKS Final Energy:  -796.36223241160019
    Total Energy =                       -796.3622324116001892
  Basis Set: AUG-CC-PVTZ
    Blend: AUG-CC-PVTZ
  Basis Set: (AUG-CC-PVTZ AUX)
    Blend: AUG-CC-PVTZ-JKFIT
  Basis Set: AUG-CC-PVTZ
    Blend: AUG-CC-PVTZ
  @DF-UKS Final Energy:  -796.36798464979745
    Total Energy =                       -796.3679846497973358
  @DF-UKS Final Energy:  -796.36803605205193
    Total Energy =                       -796.3680360520521617
  @DF-UKS Final Energy:  -796.36803787970416
    Total Energy =                       -796.3680378797039339
  @DF-UKS Final Energy:  -796.36803818763883
    Total Energy =                       -796.3680381876389447
  @DF-UKS Final Energy:  -796.36803818659166
    Total Energy =                       -796.3680381865915479
  **** Optimization is complete! (in 7 steps) ****
    Final optimized geometry and variables:
  @DF-UKS Final Energy:  -796.36803818659212
    Total Energy =                       -796.3680381865918889
  @DF-UKS Final Energy:  -796.36803818659223
    Total Energy =                       -796.3680381865921163
  Basis Set: (AUG-CC-PVTZ AUX)
    Blend: AUG-CC-PVTZ-JKFIT
  Basis Set: AUG-CC-PVTZ
    Blend: AUG-CC-PVTZ
  Basis Set: (AUG-CC-PVTZ AUX)
    Blend: AUG-CC-PVTZ-JKFIT
  @DF-UKS Final Energy:  -796.36803803230328
    Total Energy =                       -796.3680380323029340
  Basis Set: AUG-CC-PVTZ
    Blend: AUG-CC-PVTZ
  Basis Set: (AUG-CC-PVTZ AUX)
    Blend: AUG-CC-PVTZ-JKFIT
    Molecular point group: d2h
  Charge       = -1
  Multiplicity = 4
  Basis Set: AUG-CC-PVTZ
    Blend: AUG-CC-PVTZ
  Basis Set: (AUG-CC-PVTZ AUX)
    Blend: AUG-CC-PVTZ-JKFIT

    Orbital Energies [Eh]
    ---------------------

    Alpha Occupied:

       1B1u  -88.866373     1Ag   -88.866363     2Ag    -7.871697
       2B1u   -7.871689     1B2g   -5.819880     1B3g   -5.819880
       1B3u   -5.819871     1B2u   -5.819871     3Ag    -5.818577
       3B1u   -5.818504     4Ag    -0.634883     4B1u   -0.536669
       5Ag    -0.241248     2B3u   -0.203640     2B2u   -0.203640
       2B3g   -0.131007     2B2g   -0.131007     5B1u   -0.016105

    Alpha Virtual:

       6B1u    0.188091     6Ag     0.219208     3B3u    0.230936
       3B2u    0.230936     3B3g    0.243974     3B2g    0.243974
       7Ag     0.259429     7B1u    0.348687     1B1g    0.376142
       8Ag     0.376142     4B2u    0.413713     4B3u    0.413713
       1Au     0.460486     8B1u    0.460486     9Ag     0.465747
       9B1u    0.495855     4B2g    0.524920     4B3g    0.524920
       5B3u    0.646459     5B2u    0.646459     5B2g    0.741830
       5B3g    0.741830    10B1u    0.756718    10Ag     0.761755
       6B3u    0.762701     6B2u    0.762701    11Ag     0.785819
       2B1g    0.792049    12Ag     0.792051    13Ag     0.816308
       2Au     0.842173    11B1u    0.842175     6B2g    0.899701
       6B3g    0.899701     7B3u    0.914153     7B2u    0.914153
       3B1g    0.938337    14Ag     0.938338    12B1u    0.961552
       7B2g    1.022826     7B3g    1.022826     8B2u    1.154823
       8B3u    1.154823    13B1u    1.155536     3Au     1.198762
      14B1u    1.198762     8B2g    1.382221     8B3g    1.382221
      15Ag     1.388840    15B1u    1.619308    16Ag     1.984457
       4B1g    1.984460     9B2u    2.028878     9B3u    2.028878
      16B1u    2.045985     4Au     2.045989    17B1u    2.130455
       9B3g    2.201781     9B2g    2.201781    17Ag     2.266910
      10B2u    2.286063    10B3u    2.286063    11B2u    2.304187
      11B3u    2.304187    18Ag     2.308414    12B3u    2.320778
      12B2u    2.320778     5B1g    2.336311    19Ag     2.336314
      10B2g    2.362434    10B3g    2.362434    20Ag     2.385198
      11B3g    2.391661    11B2g    2.391661     5Au     2.439957
      18B1u    2.439961    19B1u    2.529105    12B2g    2.642476
      12B3g    2.642476    20B1u    3.500795    21Ag     4.359058
      21B1u    5.467765

    Beta Occupied:

       1B1u  -88.857892     1Ag   -88.857884     2Ag    -7.862943
       2B1u   -7.862894     3Ag    -5.806735     3B1u   -5.806659
       1B3u   -5.806126     1B2u   -5.806126     1B2g   -5.806121
       1B3g   -5.806121     4Ag    -0.575275     4B1u   -0.453980
       5Ag    -0.180994     2B3u   -0.130796     2B2u   -0.130796

    Beta Virtual:

       2B3g    0.118421     2B2g    0.118421     5B1u    0.187234
       6Ag     0.237060     3B3u    0.237121     3B2u    0.237121
       6B1u    0.256575     3B3g    0.261213     3B2g    0.261213
       7Ag     0.267296     7B1u    0.363875     1B1g    0.381843
       8Ag     0.381843     4B2u    0.427536     4B3u    0.427536
       8B1u    0.470106     1Au     0.470106     9Ag     0.485291
       9B1u    0.506511     4B2g    0.535487     4B3g    0.535487
       5B3u    0.665876     5B2u    0.665876     5B2g    0.754782
       5B3g    0.754782    10Ag     0.766265    10B1u    0.770371
       6B3u    0.781066     6B2u    0.781066    11Ag     0.810274
       2B1g    0.825153    12Ag     0.825154    13Ag     0.847274
       2Au     0.885122    11B1u    0.885123     7B3u    0.920352
       7B2u    0.920352     6B2g    0.937014     6B3g    0.937014
      14Ag     0.949115     3B1g    0.949115    12B1u    1.000210
       7B2g    1.030793     7B3g    1.030793     8B2u    1.167188
       8B3u    1.167188    13B1u    1.168408     3Au     1.207163
      14B1u    1.207163     8B2g    1.396441     8B3g    1.396441
      15Ag     1.407003    15B1u    1.649943    16Ag     2.019158
       4B1g    2.019162     9B2u    2.057409     9B3u    2.057409
      16B1u    2.080102     4Au     2.080106    17B1u    2.159988
       9B3g    2.230452     9B2g    2.230452    17Ag     2.292308
      10B2u    2.327149    10B3u    2.327149    18Ag     2.335456
      11B2u    2.336759    11B3u    2.336759    12B3u    2.368164
      12B2u    2.368164    19Ag     2.374158     5B1g    2.374158
      10B2g    2.408519    10B3g    2.408519    20Ag     2.420246
      11B3g    2.432209    11B2g    2.432209     5Au     2.477371
      18B1u    2.477371    19B1u    2.562702    12B2g    2.677666
      12B3g    2.677666    20B1u    3.527030    21Ag     4.384326
      21B1u    5.486080

    Final Occupation by Irrep:
             Ag   B1g   B2g   B3g    Au   B1u   B2u   B3u
    DOCC [     5,    0,    1,    1,    0,    4,    2,    2 ]
    SOCC [     0,    0,    1,    1,    0,    1,    0,    0 ]

  @DF-UKS Final Energy:  -796.36803824459002

   => Energetics <=

    Nuclear Repulsion Energy =             59.3906334272070140
    One-Electron Energy =               -1225.4635788948294248
    Two-Electron Energy =                 407.2262234237126108
    DFT Exchange-Correlation Energy =     -37.5212926944500254
    Empirical Dispersion Energy =          -0.0000235062301724
    VV10 Nonlocal Energy =                  0.0000000000000000
    Total Energy =                       -796.3680382445901387

  UHF NO Occupations:
  HONO-2 :    2B2g 1.0000000
  HONO-1 :    2B3g 1.0000000
  HONO-0 :    5B1u 1.0000000
  LUNO+0 :    3B2u 0.0042971
  LUNO+1 :    3B3u 0.0042971
  LUNO+2 :    6 Ag 0.0009169
  LUNO+3 :    7 Ag 0.0001345

Computation Completed

Properties will be evaluated at   0.000000,   0.000000,   0.000000 [a0]

Properties computed using the SCF density matrix

  Nuclear Dipole Moment: [e a0]
     X:     0.0000      Y:     0.0000      Z:     0.0000

  Electronic Dipole Moment: [e a0]
     X:     0.0000      Y:     0.0000      Z:     0.0000

  Dipole Moment: [e a0]
     X:     0.0000      Y:     0.0000      Z:     0.0000     Total:     0.0000

  Dipole Moment: [D]
     X:     0.0000      Y:     0.0000      Z:     0.0000     Total:     0.0000

*** tstop() called on c4-11.compute.lan at Tue Feb  2 12:12:55 2021
Module time:
	user time   =      10.58 seconds =       0.18 minutes
	system time =       0.09 seconds =       0.00 minutes
	total time  =         11 seconds =       0.18 minutes
Total time:
	user time   =     144.47 seconds =       2.41 minutes
	system time =       1.76 seconds =       0.03 minutes
	total time  =        147 seconds =       2.45 minutes

*** tstart() called on c4-11.compute.lan
*** at Tue Feb  2 12:12:55 2021

         ------------------------------------------------------------
                                   SCF GRAD
                          Rob Parrish, Justin Turney,
                       Andy Simmonett, and Alex Sokolov
         ------------------------------------------------------------

  ==> Geometry <==

    Molecular point group: d2h
    Full point group: D_inf_h

    Geometry (in Angstrom), charge = -1, multiplicity = 4:

       Center              X                  Y                   Z               Mass
    ------------   -----------------  -----------------  -----------------  -----------------
         S            0.000000000000     0.000000000000    -1.140494368506    31.972071174400
         S            0.000000000000     0.000000000000     1.140494368506    31.972071174400

  Nuclear repulsion =   59.390633427207014

  ==> Basis Set <==

  Basis Set: AUG-CC-PVTZ
    Blend: AUG-CC-PVTZ
    Number of shells: 32
    Number of basis function: 100
    Number of Cartesian functions: 118
    Spherical Harmonics?: true
    Max angular momentum: 3

  ==> DFJKGrad: Density-Fitted SCF Gradients <==

    Gradient:                    1
    J tasked:                  Yes
    K tasked:                  Yes
    wK tasked:                 Yes
    Omega:               2.000E-01
    OpenMP threads:              1
    Integrals threads:           1
    Memory [MiB]:             7152
    Schwarz Cutoff:          0E+00
    Fitting Condition:       1E-10

   => Auxiliary Basis Set <=

  Basis Set: (AUG-CC-PVTZ AUX)
    Blend: AUG-CC-PVTZ-JKFIT
    Number of shells: 84
    Number of basis function: 292
    Number of Cartesian functions: 360
    Spherical Harmonics?: true
    Max angular momentum: 4

  ==> DFT Potential <==

   => Composite Functional: WB97X-D <=

    wB97X-D Hyb-GGA Exchange-Correlation Functional

    J.-D. Chai and M. Head-Gordon, Phys. Chem. Chem. Phys. 10, 6615 (2008)

    Deriv               =              1
    GGA                 =           TRUE
    Meta                =          FALSE

    Exchange Hybrid     =           TRUE
    MP2 Hybrid          =          FALSE

   => Exchange-Correlation Functionals <=

    1.0000   wB97D range-separated functional

   => Exact (HF) Exchange <=

    0.7780            HF,LR [omega = 0.2000]
    0.2220               HF

   => Molecular Quadrature <=

    Radial Scheme          =       TREUTLER
    Pruning Scheme         =           NONE
    Nuclear Scheme         =       TREUTLER

    BS radius alpha        =              1
    Pruning alpha          =              1
    Radial Points          =             99
    Spherical Points       =            590
    Total Points           =         113422
    Total Blocks           =            984
    Max Points             =            254
    Max Functions          =            100
    Weights Tolerance      =       1.00E-15

  -Total Gradient:
     Atom            X                  Y                   Z
    ------   -----------------  -----------------  -----------------
       1        0.000000000000     0.000000000000     0.000075920586
       2       -0.000000000000    -0.000000000000    -0.000075920586

*** tstop() called on c4-11.compute.lan at Tue Feb  2 12:12:59 2021
Module time:
	user time   =       4.13 seconds =       0.07 minutes
	system time =       0.03 seconds =       0.00 minutes
	total time  =          4 seconds =       0.07 minutes
Total time:
	user time   =     148.61 seconds =       2.48 minutes
	system time =       1.79 seconds =       0.03 minutes
	total time  =        151 seconds =       2.52 minutes

         ----------------------------------------------------------
                                   FINDIF
                     R. A. King and Jonathon Misiewicz
         ---------------------------------------------------------

  Computing second-derivative from gradients using projected,
  symmetry-adapted, cartesian coordinates.

  3 gradients passed in, including the reference geometry.
  Generating complete list of displacements from unique ones.

-------------------------------------------------------------

  ==> Harmonic Vibrational Analysis <==

  non-mass-weighted Hessian:       Symmetric? True   Hermitian? True   Lin Dep Dim?  5 (0)
  projection of translations (True) and rotations (True) removed 5 degrees of freedom (5)
  total projector:                 Symmetric? True   Hermitian? True   Lin Dep Dim?  5 (5)
  mass-weighted Hessian:           Symmetric? True   Hermitian? True   Lin Dep Dim?  5 (0)
  pre-proj  low-frequency mode:    0.0000  [cm^-1]
  pre-proj  low-frequency mode:    0.0000  [cm^-1]
  pre-proj  low-frequency mode:    0.0000  [cm^-1]
  pre-proj  low-frequency mode:    0.0000  [cm^-1]
  pre-proj  low-frequency mode:    0.0000  [cm^-1]
  pre-proj  all modes:['0.0000' '0.0000' '0.0000' '0.0000' '0.0000' '316.7792']
  projected mass-weighted Hessian: Symmetric? True   Hermitian? True   Lin Dep Dim?  5 (5)
  post-proj low-frequency mode:    0.0000  [cm^-1] (TR)
  post-proj low-frequency mode:    0.0000  [cm^-1] (TR)
  post-proj low-frequency mode:    0.0000  [cm^-1] (TR)
  post-proj low-frequency mode:    0.0000  [cm^-1] (TR)
  post-proj low-frequency mode:    0.0000  [cm^-1] (TR)
  post-proj  all modes:['0.0000' '0.0000' '0.0000' '0.0000' '0.0000' '316.7792']

  Vibration                       6
  Freq [cm^-1]                 316.7792
  Irrep                           Ag
  Reduced mass [u]             31.9721
  Force const [mDyne/A]         1.8903
  Turning point v=0 [a0]        0.1090
  RMS dev v=0 [a0 u^1/2]        0.4359
  Char temp [K]                455.7747
  ----------------------------------------------------------------------------------
      1   S                0.00  0.00  0.71
      2   S                0.00  0.00 -0.71

  ==> Thermochemistry Components <==

  Entropy, S
    Electronic S            2.755 [cal/(mol K)]       11.526 [J/(mol K)]       0.00439013 [mEh/K] (multiplicity = 4)
    Translational S        38.385 [cal/(mol K)]      160.603 [J/(mol K)]       0.06117054 [mEh/K] (mol. weight = 63.9441 [u], P = 101325.00 [Pa])
    Rotational S           14.382 [cal/(mol K)]       60.175 [J/(mol K)]       0.02291937 [mEh/K] (symmetry no. = 2)
    Vibrational S           1.327 [cal/(mol K)]        5.551 [J/(mol K)]       0.00211419 [mEh/K]
  Total S                  56.849 [cal/(mol K)]      237.855 [J/(mol K)]       0.09059423 [mEh/K]
  Correction S              0.000 [cal/(mol K)]        0.000 [J/(mol K)]       0.00000000 [mEh/K]

  Constant volume heat capacity, Cv
    Electronic Cv           0.000 [cal/(mol K)]        0.000 [J/(mol K)]       0.00000000 [mEh/K]
    Translational Cv        2.981 [cal/(mol K)]       12.472 [J/(mol K)]       0.00475022 [mEh/K]
    Rotational Cv           1.987 [cal/(mol K)]        8.314 [J/(mol K)]       0.00316681 [mEh/K]
    Vibrational Cv          1.642 [cal/(mol K)]        6.868 [J/(mol K)]       0.00261600 [mEh/K]
  Total Cv                  6.610 [cal/(mol K)]       27.654 [J/(mol K)]       0.01053302 [mEh/K]
  Correction Cv             0.000 [cal/(mol K)]        0.000 [J/(mol K)]       0.00000000 [mEh/K]

  Constant pressure heat capacity, Cp
    Electronic Cp           0.000 [cal/(mol K)]        0.000 [J/(mol K)]       0.00000000 [mEh/K]
    Translational Cp        4.968 [cal/(mol K)]       20.786 [J/(mol K)]       0.00791703 [mEh/K]
    Rotational Cp           1.987 [cal/(mol K)]        8.314 [J/(mol K)]       0.00316681 [mEh/K]
    Vibrational Cp          1.642 [cal/(mol K)]        6.868 [J/(mol K)]       0.00261600 [mEh/K]
  Total Cp                  8.597 [cal/(mol K)]       35.969 [J/(mol K)]       0.01369983 [mEh/K]
  Correction Cp             0.000 [cal/(mol K)]        0.000 [J/(mol K)]       0.00000000 [mEh/K]

  ==> Thermochemistry Energy Analysis <==

  Raw electronic energy, E0
  Total E0, Electronic energy at well bottom at 0 [K]                 -796.36803819 [Eh]

  Zero-point energy, ZPE_vib = Sum_i nu_i / 2
    Electronic ZPE          0.000 [kcal/mol]        0.000 [kJ/mol]       0.00000000 [Eh]
    Translational ZPE       0.000 [kcal/mol]        0.000 [kJ/mol]       0.00000000 [Eh]
    Rotational ZPE          0.000 [kcal/mol]        0.000 [kJ/mol]       0.00000000 [Eh]
    Vibrational ZPE         0.453 [kcal/mol]        1.895 [kJ/mol]       0.00072168 [Eh]         158.390 [cm^-1]
  Correction ZPE            0.453 [kcal/mol]        1.895 [kJ/mol]       0.00072168 [Eh]         158.390 [cm^-1]
  Total ZPE, Electronic energy at 0 [K]                               -796.36731651 [Eh]

  Thermal Energy, E (includes ZPE)
    Electronic E            0.000 [kcal/mol]        0.000 [kJ/mol]       0.00000000 [Eh]
    Translational E         0.889 [kcal/mol]        3.718 [kJ/mol]       0.00141628 [Eh]
    Rotational E            0.592 [kcal/mol]        2.479 [kJ/mol]       0.00094418 [Eh]
    Vibrational E           0.704 [kcal/mol]        2.944 [kJ/mol]       0.00112127 [Eh]
  Correction E              2.185 [kcal/mol]        9.141 [kJ/mol]       0.00348173 [Eh]
  Total E, Electronic energy at  298.15 [K]                           -796.36455646 [Eh]

  Enthalpy, H_trans = E_trans + k_B * T
    Electronic H            0.000 [kcal/mol]        0.000 [kJ/mol]       0.00000000 [Eh]
    Translational H         1.481 [kcal/mol]        6.197 [kJ/mol]       0.00236046 [Eh]
    Rotational H            0.592 [kcal/mol]        2.479 [kJ/mol]       0.00094418 [Eh]
    Vibrational H           0.704 [kcal/mol]        2.944 [kJ/mol]       0.00112127 [Eh]
  Correction H              2.777 [kcal/mol]       11.620 [kJ/mol]       0.00442591 [Eh]
  Total H, Enthalpy at  298.15 [K]                                    -796.36361227 [Eh]

  Gibbs free energy, G = H - T * S
    Electronic G           -0.821 [kcal/mol]       -3.437 [kJ/mol]      -0.00130892 [Eh]
    Translational G        -9.963 [kcal/mol]      -41.686 [kJ/mol]      -0.01587754 [Eh]
    Rotational G           -3.696 [kcal/mol]      -15.462 [kJ/mol]      -0.00588922 [Eh]
    Vibrational G           0.308 [kcal/mol]        1.289 [kJ/mol]       0.00049092 [Eh]
  Correction G            -14.172 [kcal/mol]      -59.296 [kJ/mol]      -0.02258476 [Eh]
  Total G, Free enthalpy at  298.15 [K]                               -796.39062294 [Eh]

    Psi4 stopped on: Tuesday, 02 February 2021 12:12PM
    Psi4 wall time for execution: 0:02:31.20

*** Psi4 exiting successfully. Buy a developer a beer!
