                               Psi4 1.4a2.dev191

  ==> Input File <==

--------------------------------------------------------------------------
memory 10 GB

molecule  {
0 1
S
S 1 r1
r1 = 2.0
}

set {
reference uks
basis aug-cc-pvtz
g_convergence gau_verytight
dft_spherical_points 590
dft_radial_points 99
}

optimize('wb97x-d')
frequencies('wb97x-d')

--------------------------------------------------------------------------

    Molecular point group: d2h
  Charge       = 0
  Multiplicity = 1
  Basis Set: AUG-CC-PVTZ
    Blend: AUG-CC-PVTZ
  Basis Set: (AUG-CC-PVTZ AUX)
    Blend: AUG-CC-PVTZ-JKFIT
  @DF-UKS Final Energy:  -796.35116561479083
    Total Energy =                       -796.3511656147909434
    Molecular point group: d2h
  Basis Set: AUG-CC-PVTZ
    Blend: AUG-CC-PVTZ
  Basis Set: (AUG-CC-PVTZ AUX)
    Blend: AUG-CC-PVTZ-JKFIT
  Basis Set: AUG-CC-PVTZ
    Blend: AUG-CC-PVTZ
  Basis Set: (AUG-CC-PVTZ AUX)
    Blend: AUG-CC-PVTZ-JKFIT
  @DF-UKS Final Energy:  -796.35654118334014
    Total Energy =                       -796.3565411833402550
  Basis Set: AUG-CC-PVTZ
    Blend: AUG-CC-PVTZ
  Basis Set: (AUG-CC-PVTZ AUX)
    Blend: AUG-CC-PVTZ-JKFIT
  Basis Set: AUG-CC-PVTZ
    Blend: AUG-CC-PVTZ
  @DF-UKS Final Energy:  -796.35694037555527
    Total Energy =                       -796.3569403755552685
  @DF-UKS Final Energy:  -796.35698291316430
    Total Energy =                       -796.3569829131644155
  @DF-UKS Final Energy:  -796.35698600578462
    Total Energy =                       -796.3569860057846199
  @DF-UKS Final Energy:  -796.35698606627443
    Total Energy =                       -796.3569860662745441
  @DF-UKS Final Energy:  -796.35698606658400
    Total Energy =                       -796.3569860665838860
  **** Optimization is complete! (in 7 steps) ****
    Final optimized geometry and variables:
  @DF-UKS Final Energy:  -796.35698606658377
    Total Energy =                       -796.3569860665835449
  @DF-UKS Final Energy:  -796.35698606658411
    Total Energy =                       -796.3569860665839997
  Basis Set: (AUG-CC-PVTZ AUX)
    Blend: AUG-CC-PVTZ-JKFIT
  Basis Set: AUG-CC-PVTZ
    Blend: AUG-CC-PVTZ
  Basis Set: (AUG-CC-PVTZ AUX)
    Blend: AUG-CC-PVTZ-JKFIT
  @DF-UKS Final Energy:  -796.35698595370513
    Total Energy =                       -796.3569859537050206
  Basis Set: AUG-CC-PVTZ
    Blend: AUG-CC-PVTZ
  Basis Set: (AUG-CC-PVTZ AUX)
    Blend: AUG-CC-PVTZ-JKFIT
    Molecular point group: d2h
  Charge       = 0
  Multiplicity = 1
  Basis Set: AUG-CC-PVTZ
    Blend: AUG-CC-PVTZ
  Basis Set: (AUG-CC-PVTZ AUX)
    Blend: AUG-CC-PVTZ-JKFIT

    Orbital Energies [Eh]
    ---------------------

    Alpha Occupied:

       1B1u  -89.113198     1Ag   -89.113192     2Ag    -8.119665
       2B1u   -8.119446     1B2u   -6.070594     1B3g   -6.070525
       3Ag    -6.067628     3B1u   -6.066811     1B3u   -6.057263
       1B2g   -6.057203     4Ag    -0.932637     4B1u   -0.703367
       5Ag    -0.475607     2B2u   -0.444269     2B3u   -0.441511
       2B2g   -0.294651

    Alpha Virtual:

       2B3g   -0.109529     5B1u    0.043567     6Ag     0.085682
       3B2u    0.089304     3B3u    0.096136     6B1u    0.100652
       7Ag     0.103087     3B3g    0.118747     3B2g    0.122637
       1B1g    0.190785     8Ag     0.191959     7B1u    0.210514
       4B2u    0.241706     4B3u    0.246864     9Ag     0.281535
       1Au     0.306346     8B1u    0.307598     4B3g    0.373573
       4B2g    0.376691     9B1u    0.378954     5B2u    0.445478
       5B3u    0.461455     6B2u    0.548921    10Ag     0.558767
       6B3u    0.560981    11Ag     0.561821    10B1u    0.563869
       2B1g    0.570832     5B3g    0.575861    12Ag     0.577890
       5B2g    0.586677     2Au     0.665258    11B1u    0.666239
      13Ag     0.670420     7B3u    0.704187     7B2u    0.704316
       6B3g    0.743630     6B2g    0.758354     3B1g    0.784661
      14Ag     0.786869     7B2g    0.861080     7B3g    0.861302
      12B1u    0.878900     8B2u    1.023476     8B3u    1.036804
       3Au     1.063780    13B1u    1.064112    14B1u    1.106092
       8B3g    1.223675     8B2g    1.236949    15Ag     1.318516
      15B1u    1.441788     4B1g    1.775036    16Ag     1.775738
       9B2u    1.796302    16B1u    1.813603     9B3u    1.817418
       4Au     1.854107    17B1u    1.857040    17Ag     1.922673
       9B3g    1.935749     9B2g    1.958424     5B1g    2.021075
      18Ag     2.021121    19Ag     2.034714    10B2u    2.035293
      10B3u    2.055809    11B2u    2.081374    12B2u    2.098965
      11B3u    2.098965    12B3u    2.101291    10B2g    2.174039
      10B3g    2.174325     5Au     2.335891    18B1u    2.336157
      11B3g    2.361090    11B2g    2.379950    19B1u    2.480178
      12B3g    2.666372    20Ag     2.686346    12B2g    2.688962
      20B1u    3.644709    21Ag     4.641537    21B1u    5.387263

    Beta Occupied:

       1B1u  -89.113198     1Ag   -89.113192     2Ag    -8.119665
       2B1u   -8.119446     1B2u   -6.070594     1B3g   -6.070525
       3Ag    -6.067628     3B1u   -6.066811     1B3u   -6.057263
       1B2g   -6.057203     4Ag    -0.932637     4B1u   -0.703367
       5Ag    -0.475607     2B2u   -0.444269     2B3u   -0.441511
       2B2g   -0.294651

    Beta Virtual:

       2B3g   -0.109529     5B1u    0.043567     6Ag     0.085682
       3B2u    0.089304     3B3u    0.096136     6B1u    0.100652
       7Ag     0.103087     3B3g    0.118747     3B2g    0.122637
       1B1g    0.190785     8Ag     0.191959     7B1u    0.210514
       4B2u    0.241706     4B3u    0.246864     9Ag     0.281535
       1Au     0.306346     8B1u    0.307598     4B3g    0.373573
       4B2g    0.376691     9B1u    0.378954     5B2u    0.445478
       5B3u    0.461455     6B2u    0.548921    10Ag     0.558767
       6B3u    0.560981    11Ag     0.561821    10B1u    0.563869
       2B1g    0.570832     5B3g    0.575861    12Ag     0.577890
       5B2g    0.586677     2Au     0.665258    11B1u    0.666239
      13Ag     0.670420     7B3u    0.704187     7B2u    0.704316
       6B3g    0.743630     6B2g    0.758354     3B1g    0.784661
      14Ag     0.786869     7B2g    0.861080     7B3g    0.861302
      12B1u    0.878900     8B2u    1.023476     8B3u    1.036804
       3Au     1.063780    13B1u    1.064112    14B1u    1.106092
       8B3g    1.223675     8B2g    1.236949    15Ag     1.318516
      15B1u    1.441788     4B1g    1.775036    16Ag     1.775738
       9B2u    1.796302    16B1u    1.813603     9B3u    1.817418
       4Au     1.854107    17B1u    1.857040    17Ag     1.922673
       9B3g    1.935749     9B2g    1.958424     5B1g    2.021075
      18Ag     2.021121    19Ag     2.034714    10B2u    2.035293
      10B3u    2.055809    11B2u    2.081374    12B2u    2.098965
      11B3u    2.098965    12B3u    2.101291    10B2g    2.174039
      10B3g    2.174325     5Au     2.335891    18B1u    2.336157
      11B3g    2.361090    11B2g    2.379950    19B1u    2.480178
      12B3g    2.666372    20Ag     2.686346    12B2g    2.688962
      20B1u    3.644709    21Ag     4.641537    21B1u    5.387263

    Final Occupation by Irrep:
             Ag   B1g   B2g   B3g    Au   B1u   B2u   B3u
    DOCC [     5,    0,    2,    1,    0,    4,    2,    2 ]
    SOCC [     0,    0,    0,    0,    0,    0,    0,    0 ]

  @DF-UKS Final Energy:  -796.35698564716085

   => Energetics <=

    Nuclear Repulsion Energy =             71.5876729198632802
    One-Electron Energy =               -1241.7994452332418405
    Two-Electron Energy =                 411.3299110400377572
    DFT Exchange-Correlation Energy =     -37.4751166990146842
    Empirical Dispersion Energy =          -0.0000076748054032
    VV10 Nonlocal Energy =                  0.0000000000000000
    Total Energy =                       -796.3569856471608546

  UHF NO Occupations:
  HONO-2 :    2B2g 2.0000000
  HONO-1 :    4 Ag 2.0000000
  HONO-0 :    5 Ag 2.0000000
  LUNO+0 :    6 Ag 0.0000000
  LUNO+1 :    3B2g 0.0000000
  LUNO+2 :    5B1u 0.0000000
  LUNO+3 :    4B2g 0.0000000

Computation Completed

Properties will be evaluated at   0.000000,   0.000000,   0.000000 [a0]

Properties computed using the SCF density matrix

  Nuclear Dipole Moment: [e a0]
     X:     0.0000      Y:     0.0000      Z:     0.0000

  Electronic Dipole Moment: [e a0]
     X:     0.0000      Y:     0.0000      Z:     0.0000

  Dipole Moment: [e a0]
     X:     0.0000      Y:     0.0000      Z:     0.0000     Total:     0.0000

  Dipole Moment: [D]
     X:     0.0000      Y:     0.0000      Z:     0.0000     Total:     0.0000

*** tstop() called on c1-9.compute.lan at Tue Feb  2 11:30:50 2021
Module time:
	user time   =       9.02 seconds =       0.15 minutes
	system time =       0.06 seconds =       0.00 minutes
	total time  =          9 seconds =       0.15 minutes
Total time:
	user time   =     126.83 seconds =       2.11 minutes
	system time =       1.61 seconds =       0.03 minutes
	total time  =        129 seconds =       2.15 minutes

*** tstart() called on c1-9.compute.lan
*** at Tue Feb  2 11:30:50 2021

         ------------------------------------------------------------
                                   SCF GRAD
                          Rob Parrish, Justin Turney,
                       Andy Simmonett, and Alex Sokolov
         ------------------------------------------------------------

  ==> Geometry <==

    Molecular point group: d2h
    Full point group: D_inf_h

    Geometry (in Angstrom), charge = 0, multiplicity = 1:

       Center              X                  Y                   Z               Mass
    ------------   -----------------  -----------------  -----------------  -----------------
         S            0.000000000000     0.000000000000    -0.946178024834    31.972071174400
         S            0.000000000000     0.000000000000     0.946178024834    31.972071174400

  Nuclear repulsion =   71.587672919863280

  ==> Basis Set <==

  Basis Set: AUG-CC-PVTZ
    Blend: AUG-CC-PVTZ
    Number of shells: 32
    Number of basis function: 100
    Number of Cartesian functions: 118
    Spherical Harmonics?: true
    Max angular momentum: 3

  ==> DFJKGrad: Density-Fitted SCF Gradients <==

    Gradient:                    1
    J tasked:                  Yes
    K tasked:                  Yes
    wK tasked:                 Yes
    Omega:               2.000E-01
    OpenMP threads:              1
    Integrals threads:           1
    Memory [MiB]:             7152
    Schwarz Cutoff:          0E+00
    Fitting Condition:       1E-10

   => Auxiliary Basis Set <=

  Basis Set: (AUG-CC-PVTZ AUX)
    Blend: AUG-CC-PVTZ-JKFIT
    Number of shells: 84
    Number of basis function: 292
    Number of Cartesian functions: 360
    Spherical Harmonics?: true
    Max angular momentum: 4

  ==> DFT Potential <==

   => Composite Functional: WB97X-D <=

    wB97X-D Hyb-GGA Exchange-Correlation Functional

    J.-D. Chai and M. Head-Gordon, Phys. Chem. Chem. Phys. 10, 6615 (2008)

    Deriv               =              1
    GGA                 =           TRUE
    Meta                =          FALSE

    Exchange Hybrid     =           TRUE
    MP2 Hybrid          =          FALSE

   => Exchange-Correlation Functionals <=

    1.0000   wB97D range-separated functional

   => Exact (HF) Exchange <=

    0.7780            HF,LR [omega = 0.2000]
    0.2220               HF

   => Molecular Quadrature <=

    Radial Scheme          =       TREUTLER
    Pruning Scheme         =           NONE
    Nuclear Scheme         =       TREUTLER

    BS radius alpha        =              1
    Pruning alpha          =              1
    Radial Points          =             99
    Spherical Points       =            590
    Total Points           =         113350
    Total Blocks           =            980
    Max Points             =            256
    Max Functions          =            100
    Weights Tolerance      =       1.00E-15

  -Total Gradient:
     Atom            X                  Y                   Z
    ------   -----------------  -----------------  -----------------
       1       -0.000000000000     0.000000000000     0.000425864731
       2        0.000000000000     0.000000000000    -0.000425864731

*** tstop() called on c1-9.compute.lan at Tue Feb  2 11:30:54 2021
Module time:
	user time   =       4.06 seconds =       0.07 minutes
	system time =       0.03 seconds =       0.00 minutes
	total time  =          4 seconds =       0.07 minutes
Total time:
	user time   =     130.90 seconds =       2.18 minutes
	system time =       1.64 seconds =       0.03 minutes
	total time  =        133 seconds =       2.22 minutes

         ----------------------------------------------------------
                                   FINDIF
                     R. A. King and Jonathon Misiewicz
         ---------------------------------------------------------

  Computing second-derivative from gradients using projected,
  symmetry-adapted, cartesian coordinates.

  3 gradients passed in, including the reference geometry.
  Generating complete list of displacements from unique ones.

-------------------------------------------------------------

  ==> Harmonic Vibrational Analysis <==

  non-mass-weighted Hessian:       Symmetric? True   Hermitian? True   Lin Dep Dim?  5 (0)
  projection of translations (True) and rotations (True) removed 5 degrees of freedom (5)
  total projector:                 Symmetric? True   Hermitian? True   Lin Dep Dim?  5 (5)
  mass-weighted Hessian:           Symmetric? True   Hermitian? True   Lin Dep Dim?  5 (0)
  pre-proj  low-frequency mode:    0.0000  [cm^-1]
  pre-proj  low-frequency mode:    0.0000  [cm^-1]
  pre-proj  low-frequency mode:    0.0000  [cm^-1]
  pre-proj  low-frequency mode:    0.0000  [cm^-1]
  pre-proj  low-frequency mode:    0.0000  [cm^-1]
  pre-proj  all modes:['0.0000' '0.0000' '0.0000' '0.0000' '0.0000' '749.6244']
  projected mass-weighted Hessian: Symmetric? True   Hermitian? True   Lin Dep Dim?  5 (5)
  post-proj low-frequency mode:    0.0000i [cm^-1] (TR)
  post-proj low-frequency mode:    0.0000  [cm^-1] (TR)
  post-proj low-frequency mode:    0.0000  [cm^-1] (TR)
  post-proj low-frequency mode:    0.0000  [cm^-1] (TR)
  post-proj low-frequency mode:    0.0000  [cm^-1] (TR)
  post-proj  all modes:['0.0000i' '0.0000' '0.0000' '0.0000' '0.0000' '749.6244']

  Vibration                       6
  Freq [cm^-1]                 749.6244
  Irrep                           Ag
  Reduced mass [u]             31.9721
  Force const [mDyne/A]        10.5854
  Turning point v=0 [a0]        0.0709
  RMS dev v=0 [a0 u^1/2]        0.2834
  Char temp [K]               1078.5426
  ----------------------------------------------------------------------------------
      1   S                0.00  0.00  0.71
      2   S                0.00  0.00 -0.71

  ==> Thermochemistry Components <==

  Entropy, S
    Electronic S            0.000 [cal/(mol K)]        0.000 [J/(mol K)]       0.00000000 [mEh/K] (multiplicity = 1)
    Translational S        38.385 [cal/(mol K)]      160.603 [J/(mol K)]       0.06117054 [mEh/K] (mol. weight = 63.9441 [u], P = 101325.00 [Pa])
    Rotational S           13.640 [cal/(mol K)]       57.070 [J/(mol K)]       0.02173671 [mEh/K] (symmetry no. = 2)
    Vibrational S           0.252 [cal/(mol K)]        1.056 [J/(mol K)]       0.00040228 [mEh/K]
  Total S                  52.278 [cal/(mol K)]      218.729 [J/(mol K)]       0.08330953 [mEh/K]
  Correction S              0.000 [cal/(mol K)]        0.000 [J/(mol K)]       0.00000000 [mEh/K]

  Constant volume heat capacity, Cv
    Electronic Cv           0.000 [cal/(mol K)]        0.000 [J/(mol K)]       0.00000000 [mEh/K]
    Translational Cv        2.981 [cal/(mol K)]       12.472 [J/(mol K)]       0.00475022 [mEh/K]
    Rotational Cv           1.987 [cal/(mol K)]        8.314 [J/(mol K)]       0.00316681 [mEh/K]
    Vibrational Cv          0.737 [cal/(mol K)]        3.085 [J/(mol K)]       0.00117498 [mEh/K]
  Total Cv                  5.705 [cal/(mol K)]       23.871 [J/(mol K)]       0.00909201 [mEh/K]
  Correction Cv             0.000 [cal/(mol K)]        0.000 [J/(mol K)]       0.00000000 [mEh/K]

  Constant pressure heat capacity, Cp
    Electronic Cp           0.000 [cal/(mol K)]        0.000 [J/(mol K)]       0.00000000 [mEh/K]
    Translational Cp        4.968 [cal/(mol K)]       20.786 [J/(mol K)]       0.00791703 [mEh/K]
    Rotational Cp           1.987 [cal/(mol K)]        8.314 [J/(mol K)]       0.00316681 [mEh/K]
    Vibrational Cp          0.737 [cal/(mol K)]        3.085 [J/(mol K)]       0.00117498 [mEh/K]
  Total Cp                  7.693 [cal/(mol K)]       32.186 [J/(mol K)]       0.01225882 [mEh/K]
  Correction Cp             0.000 [cal/(mol K)]        0.000 [J/(mol K)]       0.00000000 [mEh/K]

  ==> Thermochemistry Energy Analysis <==

  Raw electronic energy, E0
  Total E0, Electronic energy at well bottom at 0 [K]                 -796.35698607 [Eh]

  Zero-point energy, ZPE_vib = Sum_i nu_i / 2
    Electronic ZPE          0.000 [kcal/mol]        0.000 [kJ/mol]       0.00000000 [Eh]
    Translational ZPE       0.000 [kcal/mol]        0.000 [kJ/mol]       0.00000000 [Eh]
    Rotational ZPE          0.000 [kcal/mol]        0.000 [kJ/mol]       0.00000000 [Eh]
    Vibrational ZPE         1.072 [kcal/mol]        4.484 [kJ/mol]       0.00170777 [Eh]         374.812 [cm^-1]
  Correction ZPE            1.072 [kcal/mol]        4.484 [kJ/mol]       0.00170777 [Eh]         374.812 [cm^-1]
  Total ZPE, Electronic energy at 0 [K]                               -796.35527830 [Eh]

  Thermal Energy, E (includes ZPE)
    Electronic E            0.000 [kcal/mol]        0.000 [kJ/mol]       0.00000000 [Eh]
    Translational E         0.889 [kcal/mol]        3.718 [kJ/mol]       0.00141628 [Eh]
    Rotational E            0.592 [kcal/mol]        2.479 [kJ/mol]       0.00094418 [Eh]
    Vibrational E           1.131 [kcal/mol]        4.731 [kJ/mol]       0.00180201 [Eh]
  Correction E              2.612 [kcal/mol]       10.929 [kJ/mol]       0.00416247 [Eh]
  Total E, Electronic energy at  298.15 [K]                           -796.35282359 [Eh]

  Enthalpy, H_trans = E_trans + k_B * T
    Electronic H            0.000 [kcal/mol]        0.000 [kJ/mol]       0.00000000 [Eh]
    Translational H         1.481 [kcal/mol]        6.197 [kJ/mol]       0.00236046 [Eh]
    Rotational H            0.592 [kcal/mol]        2.479 [kJ/mol]       0.00094418 [Eh]
    Vibrational H           1.131 [kcal/mol]        4.731 [kJ/mol]       0.00180201 [Eh]
  Correction H              3.204 [kcal/mol]       13.408 [kJ/mol]       0.00510666 [Eh]
  Total H, Enthalpy at  298.15 [K]                                    -796.35187941 [Eh]

  Gibbs free energy, G = H - T * S
    Electronic G            0.000 [kcal/mol]        0.000 [kJ/mol]       0.00000000 [Eh]
    Translational G        -9.963 [kcal/mol]      -41.686 [kJ/mol]      -0.01587754 [Eh]
    Rotational G           -3.474 [kcal/mol]      -14.536 [kJ/mol]      -0.00553662 [Eh]
    Vibrational G           1.056 [kcal/mol]        4.416 [kJ/mol]       0.00168207 [Eh]
  Correction G            -12.382 [kcal/mol]      -51.807 [kJ/mol]      -0.01973208 [Eh]
  Total G, Free enthalpy at  298.15 [K]                               -796.37671815 [Eh]

    Psi4 stopped on: Tuesday, 02 February 2021 11:30AM
    Psi4 wall time for execution: 0:02:13.08

*** Psi4 exiting successfully. Buy a developer a beer!
