                               Psi4 1.4a2.dev191

  ==> Input File <==

--------------------------------------------------------------------------
memory 10 GB

molecule  {
-2 3
S
S 1 r1
S 1 r2 2 a1
r1 = 2.0
r2 = 2.1
a1 = 120.0
}

set {
reference uks
basis aug-cc-pvtz
g_convergence gau_verytight
dft_spherical_points 590
dft_radial_points 99
}

optimize('wb97x-d')
frequencies('wb97x-d')

--------------------------------------------------------------------------

    Molecular point group: cs
  Charge       = -2
  Multiplicity = 3
  Basis Set: AUG-CC-PVTZ
    Blend: AUG-CC-PVTZ
  Basis Set: (AUG-CC-PVTZ AUX)
    Blend: AUG-CC-PVTZ-JKFIT
  @DF-UKS Final Energy: -1194.52455267637652
    Total Energy =                      -1194.5245526763760608
    Molecular point group: cs
  Basis Set: AUG-CC-PVTZ
    Blend: AUG-CC-PVTZ
  Basis Set: (AUG-CC-PVTZ AUX)
    Blend: AUG-CC-PVTZ-JKFIT
  Basis Set: AUG-CC-PVTZ
    Blend: AUG-CC-PVTZ
  Basis Set: (AUG-CC-PVTZ AUX)
    Blend: AUG-CC-PVTZ-JKFIT
  @DF-UKS Final Energy: -1194.52568948704175
    Total Energy =                      -1194.5256894870419728
  Basis Set: AUG-CC-PVTZ
    Blend: AUG-CC-PVTZ
  Basis Set: (AUG-CC-PVTZ AUX)
    Blend: AUG-CC-PVTZ-JKFIT
  Basis Set: AUG-CC-PVTZ
    Blend: AUG-CC-PVTZ
  @DF-UKS Final Energy: -1194.52641155441711
    Total Energy =                      -1194.5264115544171091
  @DF-UKS Final Energy: -1194.52650936518830
    Total Energy =                      -1194.5265093651883035
  @DF-UKS Final Energy: -1194.52653903738042
    Total Energy =                      -1194.5265390373804166
  @DF-UKS Final Energy: -1194.52654520331953
    Total Energy =                      -1194.5265452033195288
  @DF-UKS Final Energy: -1194.52654715270683
    Total Energy =                      -1194.5265471527068257
  @DF-UKS Final Energy: -1194.52654743156972
    Total Energy =                      -1194.5265474315697247
  @DF-UKS Final Energy: -1194.52654744542951
    Total Energy =                      -1194.5265474454295145
  **** Optimization is complete! (in 9 steps) ****
    Final optimized geometry and variables:
  @DF-UKS Final Energy: -1194.52654744541996
    Total Energy =                      -1194.5265474454201922
  @DF-UKS Final Energy: -1194.52654744541996
    Total Energy =                      -1194.5265474454201922
  @DF-UKS Final Energy: -1194.52654735134661
    Total Energy =                      -1194.5265473513466077
  @DF-UKS Final Energy: -1194.52654735825081
    Total Energy =                      -1194.5265473582508093
  @DF-UKS Final Energy: -1194.52654733413124
    Total Energy =                      -1194.5265473341312372
  @DF-UKS Final Energy: -1194.52654734141584
    Total Energy =                      -1194.5265473414158350
  Basis Set: (AUG-CC-PVTZ AUX)
    Blend: AUG-CC-PVTZ-JKFIT
  Basis Set: AUG-CC-PVTZ
    Blend: AUG-CC-PVTZ
  Basis Set: (AUG-CC-PVTZ AUX)
    Blend: AUG-CC-PVTZ-JKFIT
  @DF-UKS Final Energy: -1194.52654742212940
    Total Energy =                      -1194.5265474221293971
  Basis Set: AUG-CC-PVTZ
    Blend: AUG-CC-PVTZ
  Basis Set: (AUG-CC-PVTZ AUX)
    Blend: AUG-CC-PVTZ-JKFIT
    Molecular point group: cs
  Charge       = -2
  Multiplicity = 3
  Basis Set: AUG-CC-PVTZ
    Blend: AUG-CC-PVTZ
  Basis Set: (AUG-CC-PVTZ AUX)
    Blend: AUG-CC-PVTZ-JKFIT

    Orbital Energies [Eh]
    ---------------------

    Alpha Occupied:

       1Ap   -88.822420     2Ap   -88.736692     3Ap   -88.736689
       4Ap    -7.823930     5Ap    -7.744585     6Ap    -7.744581
       7Ap    -5.772229     1App   -5.770945     8Ap    -5.768120
       9Ap    -5.694774    10Ap    -5.694774     2App   -5.690707
       3App   -5.690706    11Ap    -5.686079    12Ap    -5.686078
      13Ap    -0.612938    14Ap    -0.481464    15Ap    -0.366264
      16Ap    -0.168254     4App   -0.149017    17Ap    -0.146977
       5App   -0.042228    18Ap    -0.020510    19Ap    -0.012991
       6App    0.021148    20Ap     0.160532

    Alpha Virtual:

      21Ap     0.238305    22Ap     0.277338    23Ap     0.316090
      24Ap     0.317139     7App    0.319337     8App    0.330870
       9App    0.331242    25Ap     0.335448    26Ap     0.343251
      27Ap     0.370763    28Ap     0.374983    29Ap     0.444796
      30Ap     0.454717    10App    0.484035    11App    0.505108
      31Ap     0.511635    32Ap     0.544548    33Ap     0.554005
      34Ap     0.555756    12App    0.570298    35Ap     0.573331
      13App    0.585407    14App    0.618833    36Ap     0.630163
      37Ap     0.631527    38Ap     0.658496    15App    0.665199
      39Ap     0.694306    16App    0.742898    40Ap     0.781054
      17App    0.823120    41Ap     0.832830    42Ap     0.847717
      43Ap     0.850455    18App    0.858192    19App    0.859851
      44Ap     0.861798    45Ap     0.864748    20App    0.869643
      46Ap     0.887378    47Ap     0.910963    21App    0.934680
      48Ap     0.944954    49Ap     0.945152    22App    0.959370
      50Ap     0.968324    51Ap     0.980522    52Ap     0.996855
      23App    1.009291    24App    1.051903    25App    1.052256
      53Ap     1.055162    54Ap     1.105686    55Ap     1.110875
      26App    1.112183    27App    1.115136    56Ap     1.134161
      57Ap     1.171560    58Ap     1.191381    59Ap     1.270732
      28App    1.291711    29App    1.301067    60Ap     1.335267
      30App    1.352061    61Ap     1.354065    31App    1.437349
      62Ap     1.448077    63Ap     1.464284    64Ap     1.480476
      32App    1.515240    65Ap     1.519558    33App    1.525740
      66Ap     1.622283    67Ap     1.631126    68Ap     1.721391
      69Ap     1.814228    70Ap     2.117992    34App    2.130898
      35App    2.151182    71Ap     2.167943    72Ap     2.191944
      36App    2.197281    37App    2.203901    73Ap     2.208550
      74Ap     2.214761    75Ap     2.269409    38App    2.270164
      76Ap     2.312247    77Ap     2.326493    39App    2.327657
      40App    2.330776    78Ap     2.330958    41App    2.343889
      79Ap     2.362070    42App    2.390827    80Ap     2.392691
      43App    2.406639    81Ap     2.460694    82Ap     2.461186
      44App    2.487523    45App    2.501929    83Ap     2.505522
      84Ap     2.520030    46App    2.578336    85Ap     2.595064
      47App    2.599131    48App    2.607554    86Ap     2.626172
      87Ap     2.628420    49App    2.660342    88Ap     2.697769
      89Ap     2.751073    90Ap     2.766203    91Ap     2.786873
      92Ap     2.848860    50App    2.903585    51App    2.906503
      93Ap     2.931863    94Ap     3.009087    95Ap     3.973168
      96Ap     4.012365    97Ap     5.010499    98Ap     5.531886
      99Ap     5.937791

    Beta Occupied:

       1Ap   -88.819180     2Ap   -88.734951     3Ap   -88.734948
       4Ap    -7.820508     5Ap    -7.742724     6Ap    -7.742715
       7Ap    -5.770065     8Ap    -5.765750     1App   -5.760889
       9Ap    -5.693414    10Ap    -5.693413     2App   -5.685016
       3App   -5.685016    11Ap    -5.684719    12Ap    -5.684719
      13Ap    -0.598177    14Ap    -0.470034    15Ap    -0.341824
      16Ap    -0.159079    17Ap    -0.138606     4App   -0.111760
      18Ap    -0.014729    19Ap    -0.007001     5App   -0.001201

    Beta Virtual:

       6App    0.232970    20Ap     0.309131    21Ap     0.310018
       7App    0.333328    22Ap     0.333933    23Ap     0.347485
      24Ap     0.348152     8App    0.349108    25Ap     0.384059
      26Ap     0.387282     9App    0.396344    27Ap     0.405371
      28Ap     0.429196    29Ap     0.466458    30Ap     0.481866
      10App    0.490202    11App    0.510716    31Ap     0.522902
      32Ap     0.558876    33Ap     0.569005    34Ap     0.569011
      12App    0.577997    13App    0.590993    35Ap     0.600545
      14App    0.634121    36Ap     0.634881    37Ap     0.637383
      38Ap     0.662218    15App    0.668677    39Ap     0.701382
      16App    0.756197    40Ap     0.788438    17App    0.827217
      41Ap     0.834151    42Ap     0.854548    43Ap     0.860309
      44Ap     0.864553    18App    0.865245    19App    0.869912
      45Ap     0.870862    20App    0.876167    46Ap     0.893094
      47Ap     0.919821    21App    0.944119    48Ap     0.950891
      49Ap     0.954230    22App    0.967155    50Ap     0.974453
      51Ap     0.991319    52Ap     1.002183    23App    1.020919
      24App    1.058934    53Ap     1.062788    25App    1.064441
      54Ap     1.108581    55Ap     1.112972    26App    1.115587
      27App    1.116622    56Ap     1.143122    57Ap     1.176203
      58Ap     1.194366    59Ap     1.271830    28App    1.293773
      29App    1.306091    60Ap     1.339286    30App    1.355488
      61Ap     1.356574    31App    1.441598    62Ap     1.449960
      63Ap     1.467626    64Ap     1.484676    32App    1.520802
      65Ap     1.524178    33App    1.533437    66Ap     1.624125
      67Ap     1.638923    68Ap     1.733293    69Ap     1.830070
      70Ap     2.128573    34App    2.142758    35App    2.159918
      71Ap     2.176608    72Ap     2.201805    36App    2.206472
      73Ap     2.213346    37App    2.213374    74Ap     2.218371
      75Ap     2.271342    38App    2.285785    76Ap     2.315790
      77Ap     2.334997    78Ap     2.338574    39App    2.341237
      40App    2.347213    41App    2.353921    79Ap     2.367225
      80Ap     2.403008    42App    2.410259    43App    2.420273
      81Ap     2.467333    82Ap     2.467385    44App    2.498929
      45App    2.512469    83Ap     2.514392    84Ap     2.527911
      46App    2.586658    85Ap     2.603738    47App    2.611878
      48App    2.623607    86Ap     2.632434    87Ap     2.636306
      49App    2.673222    88Ap     2.710240    89Ap     2.756585
      90Ap     2.773359    91Ap     2.792337    92Ap     2.855066
      50App    2.918915    51App    2.919229    93Ap     2.935160
      94Ap     3.012657    95Ap     3.978876    96Ap     4.017442
      97Ap     5.017792    98Ap     5.538403    99Ap     5.947060

    Final Occupation by Irrep:
             Ap   App
    DOCC [    19,    5 ]
    SOCC [     1,    1 ]

  @DF-UKS Final Energy: -1194.52654739471882

   => Energetics <=

    Nuclear Repulsion Energy =            173.3332239665664929
    One-Electron Energy =               -2011.2046928816998843
    Two-Electron Energy =                 699.7116180140239976
    DFT Exchange-Correlation Energy =     -56.3664590233995710
    Empirical Dispersion Energy =          -0.0002374702097723
    VV10 Nonlocal Energy =                  0.0000000000000000
    Total Energy =                      -1194.5265473947188184

  UHF NO Occupations:
  HONO-2 :    5App 1.9985993
  HONO-1 :    6App 1.0000000
  HONO-0 :   20 Ap 1.0000000
  LUNO+0 :    7App 0.0014007
  LUNO+1 :    8App 0.0008925
  LUNO+2 :   21 Ap 0.0005351
  LUNO+3 :   22 Ap 0.0003818

Computation Completed

Properties will be evaluated at   0.000000,   0.000000,   0.000000 [a0]

Properties computed using the SCF density matrix

  Nuclear Dipole Moment: [e a0]
     X:     0.0000      Y:     0.0000      Z:     0.0000

  Electronic Dipole Moment: [e a0]
     X:    -0.8817      Y:    -0.5847      Z:     0.0000

  Dipole Moment: [e a0]
     X:    -0.8817      Y:    -0.5847      Z:     0.0000     Total:     1.0580

  Dipole Moment: [D]
     X:    -2.2410      Y:    -1.4862      Z:     0.0000     Total:     2.6890

*** tstop() called on c2-18.compute.lan at Tue Feb  2 15:32:03 2021
Module time:
	user time   =     115.51 seconds =       1.93 minutes
	system time =       0.46 seconds =       0.01 minutes
	total time  =        116 seconds =       1.93 minutes
Total time:
	user time   =    2479.02 seconds =      41.32 minutes
	system time =      74.40 seconds =       1.24 minutes
	total time  =       3137 seconds =      52.28 minutes

*** tstart() called on c2-18.compute.lan
*** at Tue Feb  2 15:32:03 2021

         ------------------------------------------------------------
                                   SCF GRAD
                          Rob Parrish, Justin Turney,
                       Andy Simmonett, and Alex Sokolov
         ------------------------------------------------------------

  ==> Geometry <==

    Molecular point group: cs
    Full point group: Cs

    Geometry (in Angstrom), charge = -2, multiplicity = 3:

       Center              X                  Y                   Z               Mass
    ------------   -----------------  -----------------  -----------------  -----------------
         S            0.623884861819     0.413762551143     0.000000000000    31.972071174400
         S            0.624067739840    -1.618223921230     0.000000000000    31.972071174400
         S           -1.247952601659     1.204461370087     0.000000000000    31.972071174400

  Nuclear repulsion =  173.333223966566493

  ==> Basis Set <==

  Basis Set: AUG-CC-PVTZ
    Blend: AUG-CC-PVTZ
    Number of shells: 48
    Number of basis function: 150
    Number of Cartesian functions: 177
    Spherical Harmonics?: true
    Max angular momentum: 3

  ==> DFJKGrad: Density-Fitted SCF Gradients <==

    Gradient:                    1
    J tasked:                  Yes
    K tasked:                  Yes
    wK tasked:                 Yes
    Omega:               2.000E-01
    OpenMP threads:              1
    Integrals threads:           1
    Memory [MiB]:             7152
    Schwarz Cutoff:          0E+00
    Fitting Condition:       1E-10

   => Auxiliary Basis Set <=

  Basis Set: (AUG-CC-PVTZ AUX)
    Blend: AUG-CC-PVTZ-JKFIT
    Number of shells: 126
    Number of basis function: 438
    Number of Cartesian functions: 540
    Spherical Harmonics?: true
    Max angular momentum: 4

  ==> DFT Potential <==

   => Composite Functional: WB97X-D <=

    wB97X-D Hyb-GGA Exchange-Correlation Functional

    J.-D. Chai and M. Head-Gordon, Phys. Chem. Chem. Phys. 10, 6615 (2008)

    Deriv               =              1
    GGA                 =           TRUE
    Meta                =          FALSE

    Exchange Hybrid     =           TRUE
    MP2 Hybrid          =          FALSE

   => Exchange-Correlation Functionals <=

    1.0000   wB97D range-separated functional

   => Exact (HF) Exchange <=

    0.7780            HF,LR [omega = 0.2000]
    0.2220               HF

   => Molecular Quadrature <=

    Radial Scheme          =       TREUTLER
    Pruning Scheme         =           NONE
    Nuclear Scheme         =       TREUTLER

    BS radius alpha        =              1
    Pruning alpha          =              1
    Radial Points          =             99
    Spherical Points       =            590
    Total Points           =         169985
    Total Blocks           =           1389
    Max Points             =            256
    Max Functions          =            150
    Weights Tolerance      =       1.00E-15

  -Total Gradient:
     Atom            X                  Y                   Z
    ------   -----------------  -----------------  -----------------
       1        0.000063929579     0.000041826583     0.000000000000
       2        0.000009198817    -0.000065603665     0.000000000000
       3       -0.000057412910     0.000034198900     0.000000000000

*** tstop() called on c2-18.compute.lan at Tue Feb  2 15:32:23 2021
Module time:
	user time   =      19.05 seconds =       0.32 minutes
	system time =       0.08 seconds =       0.00 minutes
	total time  =         20 seconds =       0.33 minutes
Total time:
	user time   =    2498.07 seconds =      41.63 minutes
	system time =      74.48 seconds =       1.24 minutes
	total time  =       3157 seconds =      52.62 minutes

         ----------------------------------------------------------
                                   FINDIF
                     R. A. King and Jonathon Misiewicz
         ---------------------------------------------------------

  Computing second-derivative from gradients using projected,
  symmetry-adapted, cartesian coordinates.

  7 gradients passed in, including the reference geometry.
  Generating complete list of displacements from unique ones.

-------------------------------------------------------------

  ==> Harmonic Vibrational Analysis <==

  non-mass-weighted Hessian:       Symmetric? True   Hermitian? True   Lin Dep Dim?  6 (0)
  projection of translations (True) and rotations (True) removed 6 degrees of freedom (6)
  total projector:                 Symmetric? True   Hermitian? True   Lin Dep Dim?  6 (6)
  mass-weighted Hessian:           Symmetric? True   Hermitian? True   Lin Dep Dim?  6 (0)
  pre-proj  low-frequency mode:    0.0000i [cm^-1]
  pre-proj  low-frequency mode:    0.0000i [cm^-1]
  pre-proj  low-frequency mode:    0.0000  [cm^-1]
  pre-proj  low-frequency mode:    0.0000  [cm^-1]
  pre-proj  low-frequency mode:    0.0000  [cm^-1]
  pre-proj  low-frequency mode:    0.0000  [cm^-1]
  pre-proj  all modes:['0.0000i' '0.0000i' '0.0000' '0.0000' '0.0000' '0.0000' '180.1301'
 '465.3720' '501.8225']
  projected mass-weighted Hessian: Symmetric? True   Hermitian? True   Lin Dep Dim?  6 (6)
  post-proj low-frequency mode:    0.0000i [cm^-1] (TR)
  post-proj low-frequency mode:    0.0000i [cm^-1] (TR)
  post-proj low-frequency mode:    0.0000  [cm^-1] (TR)
  post-proj low-frequency mode:    0.0000  [cm^-1] (TR)
  post-proj low-frequency mode:    0.0000  [cm^-1] (TR)
  post-proj low-frequency mode:    0.0000  [cm^-1] (TR)
  post-proj  all modes:['0.0000i' '0.0000i' '0.0000' '0.0000' '0.0000' '0.0000' '180.1301'
 '465.3720' '501.8225']

  Vibration                       7                   8                   9
  Freq [cm^-1]                 180.1301            465.3720            501.8225
  Irrep                           Ap                  Ap                  Ap
  Reduced mass [u]             31.9721             31.9721             31.9721
  Force const [mDyne/A]         0.6112              4.0796              4.7437
  Turning point v=0 [a0]        0.1446              0.0900              0.0866
  RMS dev v=0 [a0 u^1/2]        0.5781              0.3597              0.3464
  Char temp [K]                259.1671            669.5666            722.0109
  ----------------------------------------------------------------------------------
      1   S               -0.34 -0.23 -0.00    0.59  0.39 -0.00   -0.42  0.63 -0.00
      2   S                0.51 -0.39 -0.00   -0.10 -0.49  0.00    0.00 -0.46 -0.00
      3   S               -0.17  0.62 -0.00   -0.49  0.10  0.00    0.42 -0.18 -0.00

  ==> Thermochemistry Components <==

  Entropy, S
    Electronic S            2.183 [cal/(mol K)]        9.134 [J/(mol K)]       0.00347910 [mEh/K] (multiplicity = 3)
    Translational S        39.594 [cal/(mol K)]      165.660 [J/(mol K)]       0.06309659 [mEh/K] (mol. weight = 95.9162 [u], P = 101325.00 [Pa])
    Rotational S           25.359 [cal/(mol K)]      106.102 [J/(mol K)]       0.04041213 [mEh/K] (symmetry no. = 1)
    Vibrational S           3.731 [cal/(mol K)]       15.612 [J/(mol K)]       0.00594616 [mEh/K]
  Total S                  70.867 [cal/(mol K)]      296.508 [J/(mol K)]       0.11293398 [mEh/K]
  Correction S              0.000 [cal/(mol K)]        0.000 [J/(mol K)]       0.00000000 [mEh/K]

  Constant volume heat capacity, Cv
    Electronic Cv           0.000 [cal/(mol K)]        0.000 [J/(mol K)]       0.00000000 [mEh/K]
    Translational Cv        2.981 [cal/(mol K)]       12.472 [J/(mol K)]       0.00475022 [mEh/K]
    Rotational Cv           2.981 [cal/(mol K)]       12.472 [J/(mol K)]       0.00475022 [mEh/K]
    Vibrational Cv          4.440 [cal/(mol K)]       18.575 [J/(mol K)]       0.00707480 [mEh/K]
  Total Cv                 10.401 [cal/(mol K)]       43.518 [J/(mol K)]       0.01657523 [mEh/K]
  Correction Cv             0.000 [cal/(mol K)]        0.000 [J/(mol K)]       0.00000000 [mEh/K]

  Constant pressure heat capacity, Cp
    Electronic Cp           0.000 [cal/(mol K)]        0.000 [J/(mol K)]       0.00000000 [mEh/K]
    Translational Cp        4.968 [cal/(mol K)]       20.786 [J/(mol K)]       0.00791703 [mEh/K]
    Rotational Cp           2.981 [cal/(mol K)]       12.472 [J/(mol K)]       0.00475022 [mEh/K]
    Vibrational Cp          4.440 [cal/(mol K)]       18.575 [J/(mol K)]       0.00707480 [mEh/K]
  Total Cp                 12.388 [cal/(mol K)]       51.833 [J/(mol K)]       0.01974204 [mEh/K]
  Correction Cp             0.000 [cal/(mol K)]        0.000 [J/(mol K)]       0.00000000 [mEh/K]

  ==> Thermochemistry Energy Analysis <==

  Raw electronic energy, E0
  Total E0, Electronic energy at well bottom at 0 [K]                -1194.52654745 [Eh]

  Zero-point energy, ZPE_vib = Sum_i nu_i / 2
    Electronic ZPE          0.000 [kcal/mol]        0.000 [kJ/mol]       0.00000000 [Eh]
    Translational ZPE       0.000 [kcal/mol]        0.000 [kJ/mol]       0.00000000 [Eh]
    Rotational ZPE          0.000 [kcal/mol]        0.000 [kJ/mol]       0.00000000 [Eh]
    Vibrational ZPE         1.640 [kcal/mol]        6.863 [kJ/mol]       0.00261380 [Eh]         573.662 [cm^-1]
  Correction ZPE            1.640 [kcal/mol]        6.863 [kJ/mol]       0.00261380 [Eh]         573.662 [cm^-1]
  Total ZPE, Electronic energy at 0 [K]                              -1194.52393365 [Eh]

  Thermal Energy, E (includes ZPE)
    Electronic E            0.000 [kcal/mol]        0.000 [kJ/mol]       0.00000000 [Eh]
    Translational E         0.889 [kcal/mol]        3.718 [kJ/mol]       0.00141628 [Eh]
    Rotational E            0.889 [kcal/mol]        3.718 [kJ/mol]       0.00141628 [Eh]
    Vibrational E           2.309 [kcal/mol]        9.662 [kJ/mol]       0.00368010 [Eh]
  Correction E              4.087 [kcal/mol]       17.099 [kJ/mol]       0.00651266 [Eh]
  Total E, Electronic energy at  298.15 [K]                          -1194.52003479 [Eh]

  Enthalpy, H_trans = E_trans + k_B * T
    Electronic H            0.000 [kcal/mol]        0.000 [kJ/mol]       0.00000000 [Eh]
    Translational H         1.481 [kcal/mol]        6.197 [kJ/mol]       0.00236046 [Eh]
    Rotational H            0.889 [kcal/mol]        3.718 [kJ/mol]       0.00141628 [Eh]
    Vibrational H           2.309 [kcal/mol]        9.662 [kJ/mol]       0.00368010 [Eh]
  Correction H              4.679 [kcal/mol]       19.578 [kJ/mol]       0.00745684 [Eh]
  Total H, Enthalpy at  298.15 [K]                                   -1194.51909060 [Eh]

  Gibbs free energy, G = H - T * S
    Electronic G           -0.651 [kcal/mol]       -2.723 [kJ/mol]      -0.00103729 [Eh]
    Translational G       -10.324 [kcal/mol]      -43.194 [kJ/mol]      -0.01645179 [Eh]
    Rotational G           -6.672 [kcal/mol]      -27.916 [kJ/mol]      -0.01063260 [Eh]
    Vibrational G           1.197 [kcal/mol]        5.007 [kJ/mol]       0.00190726 [Eh]
  Correction G            -16.450 [kcal/mol]      -68.826 [kJ/mol]      -0.02621442 [Eh]
  Total G, Free enthalpy at  298.15 [K]                              -1194.55276187 [Eh]

*** Psi4 exiting successfully. Buy a developer a beer!
