                               Psi4 1.4a2.dev191

  ==> Input File <==

--------------------------------------------------------------------------
memory 16 GB

molecule  {
-2 1
S
S 1 r1
S 1 r2 2 a1
S 2 r3 1 a2 3 d1
r1 = 2.051
r2 = 2.024
r3 = 2.024
a1 = 105.1
a2 = 105.1
d1 = 180.0
}

set {
reference uks
basis aug-cc-pvtz
g_convergence gau_verytight
dft_spherical_points 590
dft_radial_points 99
}

optimize('wb97x-d')
frequencies('wb97x-d')

--------------------------------------------------------------------------

    Molecular point group: c2h
  Charge       = -2
  Multiplicity = 1
  Basis Set: AUG-CC-PVTZ
    Blend: AUG-CC-PVTZ
  Basis Set: (AUG-CC-PVTZ AUX)
    Blend: AUG-CC-PVTZ-JKFIT
  @DF-UKS Final Energy: -1592.82078147485277
    Total Energy =                      -1592.8207814748525379
    Molecular point group: c2h
  Basis Set: AUG-CC-PVTZ
    Blend: AUG-CC-PVTZ
  Basis Set: (AUG-CC-PVTZ AUX)
    Blend: AUG-CC-PVTZ-JKFIT
  Basis Set: AUG-CC-PVTZ
    Blend: AUG-CC-PVTZ
  Basis Set: (AUG-CC-PVTZ AUX)
    Blend: AUG-CC-PVTZ-JKFIT
  @DF-UKS Final Energy: -1592.82522191535099
    Total Energy =                      -1592.8252219153509941
  Basis Set: AUG-CC-PVTZ
    Blend: AUG-CC-PVTZ
  Basis Set: (AUG-CC-PVTZ AUX)
    Blend: AUG-CC-PVTZ-JKFIT
  Basis Set: AUG-CC-PVTZ
    Blend: AUG-CC-PVTZ
  @DF-UKS Final Energy: -1592.82623353011149
    Total Energy =                      -1592.8262335301114945
  @DF-UKS Final Energy: -1592.82627048228869
    Total Energy =                      -1592.8262704822886917
  @DF-UKS Final Energy: -1592.82627735994129
    Total Energy =                      -1592.8262773599415141
  @DF-UKS Final Energy: -1592.82627979928884
    Total Energy =                      -1592.8262797992888409
  @DF-UKS Final Energy: -1592.82627986544389
    Total Energy =                      -1592.8262798654436665
  @DF-UKS Final Energy: -1592.82627986579701
    Total Energy =                      -1592.8262798657967778
  **** Optimization is complete! (in 8 steps) ****
    Final optimized geometry and variables:
  @DF-UKS Final Energy: -1592.82627986466969
    Total Energy =                      -1592.8262798646694591
  @DF-UKS Final Energy: -1592.82627986466969
    Total Energy =                      -1592.8262798646694591
  @DF-UKS Final Energy: -1592.82627975731157
    Total Energy =                      -1592.8262797573115677
  @DF-UKS Final Energy: -1592.82627979695417
    Total Energy =                      -1592.8262797969546227
  @DF-UKS Final Energy: -1592.82627977253787
    Total Energy =                      -1592.8262797725381006
  @DF-UKS Final Energy: -1592.82627976455001
    Total Energy =                      -1592.8262797645497812
  @DF-UKS Final Energy: -1592.82627979259701
    Total Energy =                      -1592.8262797925970062
  @DF-UKS Final Energy: -1592.82627983159887
    Total Energy =                      -1592.8262798315988675
  @DF-UKS Final Energy: -1592.82627986366197
    Total Energy =                      -1592.8262798636619664
  Basis Set: (AUG-CC-PVTZ AUX)
    Blend: AUG-CC-PVTZ-JKFIT
  Basis Set: AUG-CC-PVTZ
    Blend: AUG-CC-PVTZ
  Basis Set: (AUG-CC-PVTZ AUX)
    Blend: AUG-CC-PVTZ-JKFIT
  @DF-UKS Final Energy: -1592.82627975459832
    Total Energy =                      -1592.8262797545987723
  Basis Set: AUG-CC-PVTZ
    Blend: AUG-CC-PVTZ
  Basis Set: (AUG-CC-PVTZ AUX)
    Blend: AUG-CC-PVTZ-JKFIT
    Molecular point group: cs
  Charge       = -2
  Multiplicity = 1
  Basis Set: AUG-CC-PVTZ
    Blend: AUG-CC-PVTZ
  Basis Set: (AUG-CC-PVTZ AUX)
    Blend: AUG-CC-PVTZ-JKFIT

    Orbital Energies [Eh]
    ---------------------

    Alpha Occupied:

       1Ap   -88.761913     2Ap   -88.761905     3Ap   -88.705332
       4Ap   -88.705330     5Ap    -7.765876     6Ap    -7.765835
       7Ap    -7.712153     8Ap    -7.712150     9Ap    -5.716330
      10Ap    -5.716214    11Ap    -5.712972    12Ap    -5.712943
       1App   -5.705330     2App   -5.705319    13Ap    -5.663735
      14Ap    -5.663732    15Ap    -5.655363    16Ap    -5.655359
       3App   -5.654066     4App   -5.654063    17Ap    -0.570468
      18Ap    -0.502169    19Ap    -0.389934    20Ap    -0.329010
      21Ap    -0.145874    22Ap    -0.124198     5App   -0.101171
      23Ap    -0.068502     6App   -0.043039    24Ap    -0.008496
      25Ap     0.023156     7App    0.034732     8App    0.066200

    Alpha Virtual:

      26Ap     0.254784    27Ap     0.272399    28Ap     0.278742
      29Ap     0.308434    30Ap     0.321789    31Ap     0.325303
       9App    0.326728    10App    0.336084    11App    0.349277
      32Ap     0.352839    33Ap     0.360382    12App    0.369295
      34Ap     0.372193    35Ap     0.379286    36Ap     0.388849
      37Ap     0.399032    38Ap     0.461730    39Ap     0.466382
      40Ap     0.472216    13App    0.500918    14App    0.519182
      41Ap     0.544020    42Ap     0.547158    43Ap     0.565331
      15App    0.566004    44Ap     0.578666    16App    0.579807
      45Ap     0.582802    46Ap     0.596624    17App    0.605490
      47Ap     0.628854    48Ap     0.634938    18App    0.640536
      49Ap     0.653683    50Ap     0.669341    19App    0.672090
      20App    0.675800    51Ap     0.699599    52Ap     0.733636
      21App    0.775756    22App    0.838929    53Ap     0.843992
      54Ap     0.852614    23App    0.866098    55Ap     0.873396
      56Ap     0.879214    24App    0.880215    57Ap     0.889955
      25App    0.890702    58Ap     0.891341    59Ap     0.896750
      26App    0.908665    60Ap     0.912078    61Ap     0.925693
      62Ap     0.947941    27App    0.954689    63Ap     0.959644
      28App    0.975510    64Ap     0.976676    29App    0.983649
      65Ap     0.996417    66Ap     1.003871    67Ap     1.011608
      30App    1.031388    68Ap     1.052318    31App    1.058487
      69Ap     1.068815    32App    1.077291    33App    1.100943
      70Ap     1.104554    34App    1.104595    71Ap     1.112619
      72Ap     1.127553    73Ap     1.139329    35App    1.151886
      74Ap     1.153654    75Ap     1.160649    36App    1.221130
      76Ap     1.230848    77Ap     1.300692    37App    1.321686
      78Ap     1.321926    38App    1.340537    39App    1.344410
      79Ap     1.355061    80Ap     1.362306    40App    1.415848
      81Ap     1.434283    82Ap     1.442455    83Ap     1.483909
      84Ap     1.486080    41App    1.487458    42App    1.518126
      85Ap     1.540402    43App    1.542241    86Ap     1.552498
      44App    1.559879    87Ap     1.623050    88Ap     1.674448
      89Ap     1.677894    90Ap     1.730185    91Ap     1.838740
      92Ap     1.884169    45App    2.165819    93Ap     2.179353
      46App    2.199995    94Ap     2.203681    47App    2.206696
      95Ap     2.216868    96Ap     2.221889    48App    2.230218
      49App    2.251223    97Ap     2.256632    98Ap     2.275248
      99Ap     2.282691    50App    2.298171    51App    2.346866
     100Ap     2.355488   101Ap     2.362877   102Ap     2.382637
      52App    2.391036    53App    2.393481    54App    2.395507
      55App    2.409741   103Ap     2.410593   104Ap     2.420206
      56App    2.436703   105Ap     2.442525    57App    2.444223
     106Ap     2.488296   107Ap     2.491804   108Ap     2.517708
      58App    2.517814   109Ap     2.531249    59App    2.535028
     110Ap     2.551258   111Ap     2.572433    60App    2.582889
      61App    2.585459   112Ap     2.592689    62App    2.609775
     113Ap     2.626934   114Ap     2.640482    63App    2.653664
      64App    2.668161   115Ap     2.685608    65App    2.694666
     116Ap     2.702497   117Ap     2.733943   118Ap     2.741069
     119Ap     2.760841   120Ap     2.818969   121Ap     2.828923
     122Ap     2.831721    66App    2.846360    67App    2.917611
      68App    2.930047   123Ap     2.983813   124Ap     2.987505
     125Ap     3.012200   126Ap     3.864613   127Ap     3.970396
     128Ap     4.015551   129Ap     5.016377   130Ap     5.478600
     131Ap     5.908261   132Ap     6.185018

    Beta Occupied:

       1Ap   -88.761913     2Ap   -88.761905     3Ap   -88.705332
       4Ap   -88.705330     5Ap    -7.765876     6Ap    -7.765835
       7Ap    -7.712153     8Ap    -7.712150     9Ap    -5.716330
      10Ap    -5.716214    11Ap    -5.712972    12Ap    -5.712943
       1App   -5.705330     2App   -5.705319    13Ap    -5.663735
      14Ap    -5.663732    15Ap    -5.655363    16Ap    -5.655359
       3App   -5.654066     4App   -5.654063    17Ap    -0.570468
      18Ap    -0.502169    19Ap    -0.389934    20Ap    -0.329010
      21Ap    -0.145874    22Ap    -0.124198     5App   -0.101171
      23Ap    -0.068502     6App   -0.043039    24Ap    -0.008496
      25Ap     0.023156     7App    0.034732     8App    0.066200

    Beta Virtual:

      26Ap     0.254784    27Ap     0.272399    28Ap     0.278742
      29Ap     0.308434    30Ap     0.321789    31Ap     0.325303
       9App    0.326728    10App    0.336084    11App    0.349277
      32Ap     0.352839    33Ap     0.360382    12App    0.369295
      34Ap     0.372193    35Ap     0.379286    36Ap     0.388849
      37Ap     0.399032    38Ap     0.461730    39Ap     0.466382
      40Ap     0.472216    13App    0.500918    14App    0.519182
      41Ap     0.544020    42Ap     0.547158    43Ap     0.565331
      15App    0.566004    44Ap     0.578666    16App    0.579807
      45Ap     0.582802    46Ap     0.596624    17App    0.605490
      47Ap     0.628854    48Ap     0.634938    18App    0.640536
      49Ap     0.653683    50Ap     0.669341    19App    0.672090
      20App    0.675800    51Ap     0.699599    52Ap     0.733636
      21App    0.775756    22App    0.838929    53Ap     0.843992
      54Ap     0.852614    23App    0.866098    55Ap     0.873396
      56Ap     0.879214    24App    0.880215    57Ap     0.889955
      25App    0.890702    58Ap     0.891341    59Ap     0.896750
      26App    0.908665    60Ap     0.912078    61Ap     0.925693
      62Ap     0.947941    27App    0.954689    63Ap     0.959644
      28App    0.975510    64Ap     0.976676    29App    0.983649
      65Ap     0.996417    66Ap     1.003871    67Ap     1.011608
      30App    1.031388    68Ap     1.052318    31App    1.058487
      69Ap     1.068815    32App    1.077291    33App    1.100943
      70Ap     1.104554    34App    1.104595    71Ap     1.112619
      72Ap     1.127553    73Ap     1.139329    35App    1.151886
      74Ap     1.153654    75Ap     1.160649    36App    1.221130
      76Ap     1.230848    77Ap     1.300692    37App    1.321686
      78Ap     1.321926    38App    1.340537    39App    1.344410
      79Ap     1.355061    80Ap     1.362306    40App    1.415848
      81Ap     1.434283    82Ap     1.442455    83Ap     1.483909
      84Ap     1.486080    41App    1.487458    42App    1.518126
      85Ap     1.540402    43App    1.542241    86Ap     1.552498
      44App    1.559879    87Ap     1.623050    88Ap     1.674448
      89Ap     1.677894    90Ap     1.730185    91Ap     1.838740
      92Ap     1.884169    45App    2.165819    93Ap     2.179353
      46App    2.199995    94Ap     2.203681    47App    2.206696
      95Ap     2.216868    96Ap     2.221889    48App    2.230218
      49App    2.251223    97Ap     2.256632    98Ap     2.275248
      99Ap     2.282691    50App    2.298171    51App    2.346866
     100Ap     2.355488   101Ap     2.362877   102Ap     2.382637
      52App    2.391036    53App    2.393481    54App    2.395507
      55App    2.409741   103Ap     2.410593   104Ap     2.420206
      56App    2.436703   105Ap     2.442525    57App    2.444223
     106Ap     2.488296   107Ap     2.491804   108Ap     2.517708
      58App    2.517814   109Ap     2.531249    59App    2.535028
     110Ap     2.551258   111Ap     2.572433    60App    2.582889
      61App    2.585459   112Ap     2.592689    62App    2.609775
     113Ap     2.626934   114Ap     2.640482    63App    2.653664
      64App    2.668161   115Ap     2.685608    65App    2.694666
     116Ap     2.702497   117Ap     2.733943   118Ap     2.741069
     119Ap     2.760841   120Ap     2.818969   121Ap     2.828923
     122Ap     2.831721    66App    2.846360    67App    2.917611
      68App    2.930047   123Ap     2.983813   124Ap     2.987505
     125Ap     3.012200   126Ap     3.864613   127Ap     3.970396
     128Ap     4.015551   129Ap     5.016377   130Ap     5.478600
     131Ap     5.908261   132Ap     6.185018

    Final Occupation by Irrep:
             Ap   App
    DOCC [    25,    8 ]
    SOCC [     0,    0 ]

  @DF-UKS Final Energy: -1592.82627985073123

   => Energetics <=

    Nuclear Repulsion Energy =            299.4701398230125733
    One-Electron Energy =               -2820.3431675942147194
    Two-Electron Energy =                1003.2377174462807261
    DFT Exchange-Correlation Energy =     -75.1903984821070992
    Empirical Dispersion Energy =          -0.0005710437028856
    VV10 Nonlocal Energy =                  0.0000000000000000
    Total Energy =                      -1592.8262798507312255

  UHF NO Occupations:
  HONO-2 :   23 Ap 2.0000000
  HONO-1 :   24 Ap 2.0000000
  HONO-0 :   25 Ap 2.0000000
  LUNO+0 :   26 Ap 0.0000000
  LUNO+1 :   27 Ap 0.0000000
  LUNO+2 :   28 Ap 0.0000000
  LUNO+3 :    9App 0.0000000

Computation Completed

Properties will be evaluated at   0.000000,   0.000000,   0.000000 [a0]

Properties computed using the SCF density matrix

  Nuclear Dipole Moment: [e a0]
     X:     0.0000      Y:     0.0000      Z:     0.0000

  Electronic Dipole Moment: [e a0]
     X:     0.0003      Y:    -0.0007      Z:     0.0000

  Dipole Moment: [e a0]
     X:     0.0003      Y:    -0.0007      Z:     0.0000     Total:     0.0007

  Dipole Moment: [D]
     X:     0.0007      Y:    -0.0017      Z:     0.0000     Total:     0.0018

*** tstop() called on d3-3.compute.lan at Thu Feb 11 15:01:46 2021
Module time:
	user time   =     175.84 seconds =       2.93 minutes
	system time =       0.25 seconds =       0.00 minutes
	total time  =        176 seconds =       2.93 minutes
Total time:
	user time   =    3669.27 seconds =      61.15 minutes
	system time =      13.89 seconds =       0.23 minutes
	total time  =       3686 seconds =      61.43 minutes

*** tstart() called on d3-3.compute.lan
*** at Thu Feb 11 15:01:46 2021

         ------------------------------------------------------------
                                   SCF GRAD
                          Rob Parrish, Justin Turney,
                       Andy Simmonett, and Alex Sokolov
         ------------------------------------------------------------

  ==> Geometry <==

    Molecular point group: cs
    Full point group: Cs

    Geometry (in Angstrom), charge = -2, multiplicity = 1:

       Center              X                  Y                   Z               Mass
    ------------   -----------------  -----------------  -----------------  -----------------
         S            0.000000000000     1.083550204185     0.000000000000    31.972071174400
         S            0.000000000000    -1.084018139423     0.000000000000    31.972071174400
         S           -2.008373897442     1.621688075844     0.000000000000    31.972071174400
         S            2.008373897442    -1.621220140606     0.000000000000    31.972071174400

  Nuclear repulsion =  299.470139823012573

  ==> Basis Set <==

  Basis Set: AUG-CC-PVTZ
    Blend: AUG-CC-PVTZ
    Number of shells: 64
    Number of basis function: 200
    Number of Cartesian functions: 236
    Spherical Harmonics?: true
    Max angular momentum: 3

  ==> DFJKGrad: Density-Fitted SCF Gradients <==

    Gradient:                    1
    J tasked:                  Yes
    K tasked:                  Yes
    wK tasked:                 Yes
    Omega:               2.000E-01
    OpenMP threads:              1
    Integrals threads:           1
    Memory [MiB]:            11444
    Schwarz Cutoff:          0E+00
    Fitting Condition:       1E-10

   => Auxiliary Basis Set <=

  Basis Set: (AUG-CC-PVTZ AUX)
    Blend: AUG-CC-PVTZ-JKFIT
    Number of shells: 168
    Number of basis function: 584
    Number of Cartesian functions: 720
    Spherical Harmonics?: true
    Max angular momentum: 4

  ==> DFT Potential <==

   => Composite Functional: WB97X-D <=

    wB97X-D Hyb-GGA Exchange-Correlation Functional

    J.-D. Chai and M. Head-Gordon, Phys. Chem. Chem. Phys. 10, 6615 (2008)

    Deriv               =              1
    GGA                 =           TRUE
    Meta                =          FALSE

    Exchange Hybrid     =           TRUE
    MP2 Hybrid          =          FALSE

   => Exchange-Correlation Functionals <=

    1.0000   wB97D range-separated functional

   => Exact (HF) Exchange <=

    0.7780            HF,LR [omega = 0.2000]
    0.2220               HF

   => Molecular Quadrature <=

    Radial Scheme          =       TREUTLER
    Pruning Scheme         =           NONE
    Nuclear Scheme         =       TREUTLER

    BS radius alpha        =              1
    Pruning alpha          =              1
    Radial Points          =             99
    Spherical Points       =            590
    Total Points           =         225884
    Total Blocks           =           1830
    Max Points             =            256
    Max Functions          =            200
    Weights Tolerance      =       1.00E-15

  -Total Gradient:
     Atom            X                  Y                   Z
    ------   -----------------  -----------------  -----------------
       1        0.000035475788    -0.000015188756     0.000000000000
       2        0.000026350217    -0.000015579013     0.000000000000
       3       -0.000024393318     0.000023523011     0.000000000000
       4       -0.000037443080     0.000007165940     0.000000000000

*** tstop() called on d3-3.compute.lan at Thu Feb 11 15:02:27 2021
Module time:
	user time   =      41.17 seconds =       0.69 minutes
	system time =       0.15 seconds =       0.00 minutes
	total time  =         41 seconds =       0.68 minutes
Total time:
	user time   =    3710.44 seconds =      61.84 minutes
	system time =      14.04 seconds =       0.23 minutes
	total time  =       3727 seconds =      62.12 minutes

         ----------------------------------------------------------
                                   FINDIF
                     R. A. King and Jonathon Misiewicz
         ---------------------------------------------------------

  Computing second-derivative from gradients using projected,
  symmetry-adapted, cartesian coordinates.

  10 gradients passed in, including the reference geometry.
  Generating complete list of displacements from unique ones.

    Operation 3 takes plus displacements of irrep Au to minus ones.
    Operation 2 takes plus displacements of irrep Bu to minus ones.

-------------------------------------------------------------

  ==> Harmonic Vibrational Analysis <==

  non-mass-weighted Hessian:       Symmetric? True   Hermitian? True   Lin Dep Dim?  6 (0)
  projection of translations (True) and rotations (True) removed 6 degrees of freedom (6)
  total projector:                 Symmetric? True   Hermitian? True   Lin Dep Dim?  6 (6)
  mass-weighted Hessian:           Symmetric? True   Hermitian? True   Lin Dep Dim?  6 (0)
  pre-proj  low-frequency mode:    0.0000i [cm^-1]
  pre-proj  low-frequency mode:    0.0000i [cm^-1]
  pre-proj  low-frequency mode:    0.0000i [cm^-1]
  pre-proj  low-frequency mode:    0.0000i [cm^-1]
  pre-proj  low-frequency mode:    0.0000  [cm^-1]
  pre-proj  low-frequency mode:    0.0000  [cm^-1]
  pre-proj  low-frequency mode:   30.2878  [cm^-1]
  pre-proj  all modes:['0.0000i' '0.0000i' '0.0000i' '0.0000i' '0.0000' '0.0000' '30.2878'
 '115.4539' '184.1604' '458.8743' '495.5934' '508.5771']
  projected mass-weighted Hessian: Symmetric? True   Hermitian? True   Lin Dep Dim?  6 (6)
  post-proj low-frequency mode:    0.0000i [cm^-1] (TR)
  post-proj low-frequency mode:    0.0000i [cm^-1] (TR)
  post-proj low-frequency mode:    0.0000i [cm^-1] (TR)
  post-proj low-frequency mode:    0.0000i [cm^-1] (TR)
  post-proj low-frequency mode:    0.0000  [cm^-1] (TR)
  post-proj low-frequency mode:    0.0000  [cm^-1] (TR)
  post-proj low-frequency mode:   30.2878  [cm^-1] (V)
  post-proj  all modes:['0.0000i' '0.0000i' '0.0000i' '0.0000i' '0.0000' '0.0000' '30.2878'
 '115.4539' '184.1604' '458.8743' '495.5934' '508.5771']

  Vibration                       7                   8                   9
  Freq [cm^-1]                 30.2878             115.4539            184.1604
  Irrep                           Au                  Bu                  Ag
  Reduced mass [u]             31.9721             31.9721             31.9721
  Force const [mDyne/A]         0.0173              0.2511              0.6389
  Turning point v=0 [a0]        0.3526              0.1806              0.1430
  RMS dev v=0 [a0 u^1/2]        1.4098              0.7221              0.5717
  Char temp [K]                43.5774             166.1125            264.9659
  ----------------------------------------------------------------------------------
      1   S                0.00  0.00  0.50    0.13  0.48  0.00   -0.37  0.15  0.00
      2   S                0.00  0.00  0.50    0.13  0.48 -0.00    0.37 -0.15 -0.00
      3   S                0.00  0.00 -0.50   -0.13 -0.48  0.00   -0.34  0.47  0.00
      4   S                0.00  0.00 -0.50   -0.13 -0.48  0.00    0.34 -0.47 -0.00

  Vibration                       10                  11                  12
  Freq [cm^-1]                 458.8743            495.5934            508.5771
  Irrep                           Ag                  Bu                  Ag
  Reduced mass [u]             31.9721             31.9721             31.9721
  Force const [mDyne/A]         3.9665              4.6267              4.8723
  Turning point v=0 [a0]        0.0906              0.0872              0.0860
  RMS dev v=0 [a0 u^1/2]        0.3622              0.3485              0.3440
  Char temp [K]                660.2179            713.0486            731.7293
  ----------------------------------------------------------------------------------
      1   S               -0.02  0.68  0.00    0.48 -0.13 -0.00    0.54  0.13  0.00
      2   S                0.02 -0.68  0.00    0.48 -0.13  0.00   -0.54 -0.13 -0.00
      3   S                0.16 -0.12  0.00   -0.48  0.13  0.00   -0.44  0.07 -0.00
      4   S               -0.16  0.12 -0.00   -0.48  0.13 -0.00    0.44 -0.07  0.00

  ==> Thermochemistry Components <==

  Entropy, S
    Electronic S            0.000 [cal/(mol K)]        0.000 [J/(mol K)]       0.00000000 [mEh/K] (multiplicity = 1)
    Translational S        40.451 [cal/(mol K)]      169.248 [J/(mol K)]       0.06446314 [mEh/K] (mol. weight = 127.8883 [u], P = 101325.00 [Pa])
    Rotational S           26.205 [cal/(mol K)]      109.642 [J/(mol K)]       0.04176061 [mEh/K] (symmetry no. = 2)
    Vibrational S          13.347 [cal/(mol K)]       55.844 [J/(mol K)]       0.02126983 [mEh/K]
  Total S                  80.003 [cal/(mol K)]      334.734 [J/(mol K)]       0.12749358 [mEh/K]
  Correction S              0.000 [cal/(mol K)]        0.000 [J/(mol K)]       0.00000000 [mEh/K]

  Constant volume heat capacity, Cv
    Electronic Cv           0.000 [cal/(mol K)]        0.000 [J/(mol K)]       0.00000000 [mEh/K]
    Translational Cv        2.981 [cal/(mol K)]       12.472 [J/(mol K)]       0.00475022 [mEh/K]
    Rotational Cv           2.981 [cal/(mol K)]       12.472 [J/(mol K)]       0.00475022 [mEh/K]
    Vibrational Cv          9.614 [cal/(mol K)]       40.224 [J/(mol K)]       0.01532044 [mEh/K]
  Total Cv                 15.575 [cal/(mol K)]       65.167 [J/(mol K)]       0.02482087 [mEh/K]
  Correction Cv             0.000 [cal/(mol K)]        0.000 [J/(mol K)]       0.00000000 [mEh/K]

  Constant pressure heat capacity, Cp
    Electronic Cp           0.000 [cal/(mol K)]        0.000 [J/(mol K)]       0.00000000 [mEh/K]
    Translational Cp        4.968 [cal/(mol K)]       20.786 [J/(mol K)]       0.00791703 [mEh/K]
    Rotational Cp           2.981 [cal/(mol K)]       12.472 [J/(mol K)]       0.00475022 [mEh/K]
    Vibrational Cp          9.614 [cal/(mol K)]       40.224 [J/(mol K)]       0.01532044 [mEh/K]
  Total Cp                 17.563 [cal/(mol K)]       73.482 [J/(mol K)]       0.02798768 [mEh/K]
  Correction Cp             0.000 [cal/(mol K)]        0.000 [J/(mol K)]       0.00000000 [mEh/K]

  ==> Thermochemistry Energy Analysis <==

  Raw electronic energy, E0
  Total E0, Electronic energy at well bottom at 0 [K]                -1592.82627986 [Eh]

  Zero-point energy, ZPE_vib = Sum_i nu_i / 2
    Electronic ZPE          0.000 [kcal/mol]        0.000 [kJ/mol]       0.00000000 [Eh]
    Translational ZPE       0.000 [kcal/mol]        0.000 [kJ/mol]       0.00000000 [Eh]
    Rotational ZPE          0.000 [kcal/mol]        0.000 [kJ/mol]       0.00000000 [Eh]
    Vibrational ZPE         2.563 [kcal/mol]       10.724 [kJ/mol]       0.00408463 [Eh]         896.474 [cm^-1]
  Correction ZPE            2.563 [kcal/mol]       10.724 [kJ/mol]       0.00408463 [Eh]         896.474 [cm^-1]
  Total ZPE, Electronic energy at 0 [K]                              -1592.82219523 [Eh]

  Thermal Energy, E (includes ZPE)
    Electronic E            0.000 [kcal/mol]        0.000 [kJ/mol]       0.00000000 [Eh]
    Translational E         0.889 [kcal/mol]        3.718 [kJ/mol]       0.00141628 [Eh]
    Rotational E            0.889 [kcal/mol]        3.718 [kJ/mol]       0.00141628 [Eh]
    Vibrational E           4.364 [kcal/mol]       18.259 [kJ/mol]       0.00695451 [Eh]
  Correction E              6.141 [kcal/mol]       25.696 [kJ/mol]       0.00978707 [Eh]
  Total E, Electronic energy at  298.15 [K]                          -1592.81649280 [Eh]

  Enthalpy, H_trans = E_trans + k_B * T
    Electronic H            0.000 [kcal/mol]        0.000 [kJ/mol]       0.00000000 [Eh]
    Translational H         1.481 [kcal/mol]        6.197 [kJ/mol]       0.00236046 [Eh]
    Rotational H            0.889 [kcal/mol]        3.718 [kJ/mol]       0.00141628 [Eh]
    Vibrational H           4.364 [kcal/mol]       18.259 [kJ/mol]       0.00695451 [Eh]
  Correction H              6.734 [kcal/mol]       28.175 [kJ/mol]       0.01073125 [Eh]
  Total H, Enthalpy at  298.15 [K]                                   -1592.81554861 [Eh]

  Gibbs free energy, G = H - T * S
    Electronic G            0.000 [kcal/mol]        0.000 [kJ/mol]       0.00000000 [Eh]
    Translational G       -10.579 [kcal/mol]      -44.264 [kJ/mol]      -0.01685922 [Eh]
    Rotational G           -6.924 [kcal/mol]      -28.971 [kJ/mol]      -0.01103465 [Eh]
    Vibrational G           0.385 [kcal/mol]        1.609 [kJ/mol]       0.00061291 [Eh]
  Correction G            -17.119 [kcal/mol]      -71.626 [kJ/mol]      -0.02728096 [Eh]
  Total G, Free enthalpy at  298.15 [K]                              -1592.85356082 [Eh]

*** Psi4 exiting successfully. Buy a developer a beer!
