                               Psi4 1.4a2.dev191

  ==> Input File <==

--------------------------------------------------------------------------
memory 10 GB

molecule  {
-2 1
S
S 1 r1
r1 = 2.0
}

set {
reference uks
basis aug-cc-pvtz
g_convergence gau_verytight
dft_spherical_points 590
dft_radial_points 99
}

optimize('wb97m-v')
frequencies('wb97m-v')

--------------------------------------------------------------------------

    Molecular point group: d2h
  Charge       = -2
  Multiplicity = 1
  Basis Set: AUG-CC-PVTZ
    Blend: AUG-CC-PVTZ
  Basis Set: (AUG-CC-PVTZ AUX)
    Blend: AUG-CC-PVTZ-JKFIT
  @DF-UKS Final Energy:  -796.27837977962713
    Total Energy =                       -796.2783797796272438
    Molecular point group: d2h
  Basis Set: AUG-CC-PVTZ
    Blend: AUG-CC-PVTZ
  Basis Set: (AUG-CC-PVTZ AUX)
    Blend: AUG-CC-PVTZ-JKFIT
  @DF-UKS Final Energy:  -796.27844426135232
    Total Energy =                       -796.2784442613522060
  Basis Set: AUG-CC-PVTZ
    Blend: AUG-CC-PVTZ
  Basis Set: (AUG-CC-PVTZ AUX)
    Blend: AUG-CC-PVTZ-JKFIT
  @DF-UKS Final Energy:  -796.27831493704321
    Total Energy =                       -796.2783149370432056
  Basis Set: AUG-CC-PVTZ
    Blend: AUG-CC-PVTZ
  Basis Set: (AUG-CC-PVTZ AUX)
    Blend: AUG-CC-PVTZ-JKFIT
  @DF-UKS Final Energy:  -796.28371511599596
    Total Energy =                       -796.2837151159958466
  @DF-UKS Final Energy:  -796.28374345884868
    Total Energy =                       -796.2837434588486758
  @DF-UKS Final Energy:  -796.28368651146002
    Total Energy =                       -796.2836865114600187
  @DF-UKS Final Energy:  -796.28530187177239
    Total Energy =                       -796.2853018717722762
  @DF-UKS Final Energy:  -796.28530911511461
    Total Energy =                       -796.2853091151147282
  @DF-UKS Final Energy:  -796.28529442476838
    Total Energy =                       -796.2852944247686082
  @DF-UKS Final Energy:  -796.28542666783187
    Total Energy =                       -796.2854266678317572
  @DF-UKS Final Energy:  -796.28542867349995
    Total Energy =                       -796.2854286735000642
  @DF-UKS Final Energy:  -796.28542447237874
    Total Energy =                       -796.2854244723786223
  @DF-UKS Final Energy:  -796.28543807352480
    Total Energy =                       -796.2854380735251425
  @DF-UKS Final Energy:  -796.28543832654555
    Total Energy =                       -796.2854383265453180
  @DF-UKS Final Energy:  -796.28543763482298
    Total Energy =                       -796.2854376348230971
  @DF-UKS Final Energy:  -796.28543839616520
    Total Energy =                       -796.2854383961652047
  @DF-UKS Final Energy:  -796.28543832099342
    Total Energy =                       -796.2854383209933076
  @DF-UKS Final Energy:  -796.28543828626175
    Total Energy =                       -796.2854382862616376
  @DF-UKS Final Energy:  -796.28543839674035
    Total Energy =                       -796.2854383967404601
  @DF-UKS Final Energy:  -796.28543830478066
    Total Energy =                       -796.2854383047806550
  @DF-UKS Final Energy:  -796.28543830415333
    Total Energy =                       -796.2854383041533310
  **** Optimization is complete! (in 7 steps) ****
    Final optimized geometry and variables:
  @DF-UKS Final Energy:  -796.28543839674012
    Total Energy =                       -796.2854383967400054
  @DF-UKS Final Energy:  -796.28543830478111
    Total Energy =                       -796.2854383047811098
  Basis Set: AUG-CC-PVTZ
    Blend: AUG-CC-PVTZ
  Basis Set: (AUG-CC-PVTZ AUX)
    Blend: AUG-CC-PVTZ-JKFIT
  @DF-UKS Final Energy:  -796.28543830415379
    Total Energy =                       -796.2854383041538995
  Basis Set: AUG-CC-PVTZ
    Blend: AUG-CC-PVTZ
  Basis Set: (AUG-CC-PVTZ AUX)
    Blend: AUG-CC-PVTZ-JKFIT
  @DF-UKS Final Energy:  -796.28543839673966
    Total Energy =                       -796.2854383967397780
  Multiplicity = 1
  Basis Set: AUG-CC-PVTZ
    Blend: AUG-CC-PVTZ
  Basis Set: (AUG-CC-PVTZ AUX)
    Blend: AUG-CC-PVTZ-JKFIT
  @DF-UKS Final Energy:  -796.28543830478134
    Total Energy =                       -796.2854383047812235
    Molecular point group: d2h

    Geometry (in Angstrom), charge = -2, multiplicity = 1:

       Center              X                  Y                   Z               Mass
    ------------   -----------------  -----------------  -----------------  -----------------
         S            0.000000000000     0.000000000000    -1.080951874826    31.972071174400
         S            0.000000000000     0.000000000000     1.080951874826    31.972071174400

  Charge       = -2
  Multiplicity = 1
  Basis Set: AUG-CC-PVTZ
    Blend: AUG-CC-PVTZ
  Basis Set: (AUG-CC-PVTZ AUX)
    Blend: AUG-CC-PVTZ-JKFIT

    Orbital Energies [Eh]
    ---------------------

    Alpha Occupied:

       1B1u  -88.787976     1Ag   -88.787973     2Ag    -7.697229
       2B1u   -7.697193     3Ag    -5.608889     3B1u   -5.608768
       1B2u   -5.601635     1B3u   -5.601635     1B3g   -5.601634
       1B2g   -5.601634     4Ag    -0.431328     4B1u   -0.288445
       5Ag    -0.012114     2B2u    0.016169     2B3u    0.016169
       2B2g    0.115943     2B3g    0.115943

    Alpha Virtual:

       5B1u    0.264761     6Ag     0.332124     3B3u    0.355391
       3B2u    0.355391     3B2g    0.362796     3B3g    0.362796
       7Ag     0.414295     6B1u    0.422344     7B1u    0.507623
       8Ag     0.560067     1B1g    0.560072     4B3u    0.605681
       4B2u    0.605681     9Ag     0.630552     1Au     0.639353
       8B1u    0.639355     9B1u    0.671846     4B3g    0.685925
       4B2g    0.685925     5B3u    0.848232     5B2u    0.848232
      10B1u    0.920408     5B2g    0.939129     5B3g    0.939129
      10Ag     0.940187     6B2u    0.966079     6B3u    0.966079
      11Ag     0.980061    12Ag     1.012332     2B1g    1.012337
      13Ag     1.044551     2Au     1.083267    11B1u    1.083274
       7B2u    1.118107     7B3u    1.118107     6B3g    1.133142
       6B2g    1.133142     3B1g    1.162722    14Ag     1.162729
      12B1u    1.209692     7B2g    1.239193     7B3g    1.239193
       8B3u    1.376738     8B2u    1.376738    13B1u    1.392161
      14B1u    1.413717     3Au     1.413737     8B3g    1.582468
       8B2g    1.582468    15Ag     1.622784    15B1u    1.832413
       4B1g    2.211380    16Ag     2.211383     9B2u    2.264897
       9B3u    2.264897     4Au     2.276426    16B1u    2.276435
      17B1u    2.297411     9B2g    2.414865     9B3g    2.414865
      17Ag     2.424834    10B3u    2.458166    10B2u    2.458166
      11B3u    2.528559    11B2u    2.528559     5B1g    2.532837
      18Ag     2.532838    19Ag     2.533787    12B2u    2.551714
      12B3u    2.551714    10B3g    2.595939    10B2g    2.595939
      11B2g    2.663485    11B3g    2.663485    18B1u    2.680353
       5Au     2.680368    20Ag     2.709029    19B1u    2.775244
      12B2g    2.924306    12B3g    2.924306    20B1u    3.907492
      21Ag     4.712085    21B1u    5.711875

    Beta Occupied:

       1B1u  -88.787976     1Ag   -88.787973     2Ag    -7.697229
       2B1u   -7.697193     3Ag    -5.608889     3B1u   -5.608768
       1B2u   -5.601635     1B3u   -5.601635     1B3g   -5.601634
       1B2g   -5.601634     4Ag    -0.431328     4B1u   -0.288445
       5Ag    -0.012114     2B2u    0.016169     2B3u    0.016169
       2B2g    0.115943     2B3g    0.115943

    Beta Virtual:

       5B1u    0.264761     6Ag     0.332124     3B3u    0.355391
       3B2u    0.355391     3B2g    0.362796     3B3g    0.362796
       7Ag     0.414295     6B1u    0.422344     7B1u    0.507623
       8Ag     0.560067     1B1g    0.560072     4B3u    0.605681
       4B2u    0.605681     9Ag     0.630552     1Au     0.639353
       8B1u    0.639355     9B1u    0.671846     4B3g    0.685925
       4B2g    0.685925     5B3u    0.848232     5B2u    0.848232
      10B1u    0.920408     5B2g    0.939129     5B3g    0.939129
      10Ag     0.940187     6B2u    0.966079     6B3u    0.966079
      11Ag     0.980061    12Ag     1.012332     2B1g    1.012337
      13Ag     1.044551     2Au     1.083267    11B1u    1.083274
       7B2u    1.118107     7B3u    1.118107     6B3g    1.133142
       6B2g    1.133142     3B1g    1.162722    14Ag     1.162729
      12B1u    1.209692     7B2g    1.239193     7B3g    1.239193
       8B3u    1.376738     8B2u    1.376738    13B1u    1.392161
      14B1u    1.413717     3Au     1.413737     8B3g    1.582468
       8B2g    1.582468    15Ag     1.622784    15B1u    1.832413
       4B1g    2.211380    16Ag     2.211383     9B2u    2.264897
       9B3u    2.264897     4Au     2.276426    16B1u    2.276435
      17B1u    2.297411     9B2g    2.414865     9B3g    2.414865
      17Ag     2.424834    10B3u    2.458166    10B2u    2.458166
      11B3u    2.528559    11B2u    2.528559     5B1g    2.532837
      18Ag     2.532838    19Ag     2.533787    12B2u    2.551714
      12B3u    2.551714    10B3g    2.595939    10B2g    2.595939
      11B2g    2.663485    11B3g    2.663485    18B1u    2.680353
       5Au     2.680368    20Ag     2.709029    19B1u    2.775244
      12B2g    2.924306    12B3g    2.924306    20B1u    3.907492
      21Ag     4.712085    21B1u    5.711875

    Final Occupation by Irrep:
             Ag   B1g   B2g   B3g    Au   B1u   B2u   B3u
    DOCC [     5,    0,    2,    2,    0,    4,    2,    2 ]
    SOCC [     0,    0,    0,    0,    0,    0,    0,    0 ]

  @DF-UKS Final Energy:  -796.28543830415424

   => Energetics <=

    Nuclear Repulsion Energy =             62.6620708499755352
    One-Electron Energy =               -1238.9483348337394091
    Two-Electron Energy =                 419.5466873264272749
    DFT Exchange-Correlation Energy =     -39.6844140968889931
    Empirical Dispersion Energy =           0.0000000000000000
    VV10 Nonlocal Energy =                  0.1385524500713912
    Total Energy =                       -796.2854383041541269

  UHF NO Occupations:
  HONO-2 :    4 Ag 2.0000000
  HONO-1 :    5 Ag 2.0000000
  HONO-0 :    2B3g 2.0000000
  LUNO+0 :    6 Ag 0.0000000
  LUNO+1 :    5B1u 0.0000000
  LUNO+2 :    7 Ag 0.0000000
  LUNO+3 :    3B2u 0.0000000

Computation Completed

Properties will be evaluated at   0.000000,   0.000000,   0.000000 [a0]

Properties computed using the SCF density matrix

  Nuclear Dipole Moment: [e a0]
     X:     0.0000      Y:     0.0000      Z:     0.0000

  Electronic Dipole Moment: [e a0]
     X:     0.0000      Y:     0.0000      Z:     0.0000

  Dipole Moment: [e a0]
     X:     0.0000      Y:     0.0000      Z:     0.0000     Total:     0.0000

  Dipole Moment: [D]
     X:     0.0000      Y:     0.0000      Z:     0.0000     Total:     0.0000

*** tstop() called on c1-9.compute.lan at Tue Feb  2 11:40:36 2021
Module time:
	user time   =      41.37 seconds =       0.69 minutes
	system time =       0.22 seconds =       0.00 minutes
	total time  =         41 seconds =       0.68 minutes
Total time:
	user time   =     709.41 seconds =      11.82 minutes
	system time =       4.41 seconds =       0.07 minutes
	total time  =        714 seconds =      11.90 minutes

         ----------------------------------------------------------
                                   FINDIF
                     R. A. King and Jonathon Misiewicz
         ---------------------------------------------------------

  Computing second-derivative from energies using projected,
  symmetry-adapted, cartesian coordinates.

  3 energies passed in, including the reference geometry.
    Using 3-point formula.
    Energy without displacement: -796.2854383967
    Check energies below for precision!
    0: -1 :      -796.2854383048
    0: 1  :      -796.2854383042

-------------------------------------------------------------

  ==> Harmonic Vibrational Analysis <==

  non-mass-weighted Hessian:       Symmetric? True   Hermitian? True   Lin Dep Dim?  5 (0)
  projection of translations (True) and rotations (True) removed 5 degrees of freedom (5)
  total projector:                 Symmetric? True   Hermitian? True   Lin Dep Dim?  5 (5)
  mass-weighted Hessian:           Symmetric? True   Hermitian? True   Lin Dep Dim?  5 (0)
  pre-proj  low-frequency mode:    0.0000  [cm^-1]
  pre-proj  low-frequency mode:    0.0000  [cm^-1]
  pre-proj  low-frequency mode:    0.0000  [cm^-1]
  pre-proj  low-frequency mode:    0.0000  [cm^-1]
  pre-proj  low-frequency mode:    0.0000  [cm^-1]
  pre-proj  all modes:['0.0000' '0.0000' '0.0000' '0.0000' '0.0000' '441.6558']
  projected mass-weighted Hessian: Symmetric? True   Hermitian? True   Lin Dep Dim?  5 (5)
  post-proj low-frequency mode:    0.0000i [cm^-1] (TR)
  post-proj low-frequency mode:    0.0000  [cm^-1] (TR)
  post-proj low-frequency mode:    0.0000  [cm^-1] (TR)
  post-proj low-frequency mode:    0.0000  [cm^-1] (TR)
  post-proj low-frequency mode:    0.0000  [cm^-1] (TR)
  post-proj  all modes:['0.0000i' '0.0000' '0.0000' '0.0000' '0.0000' '441.6558']

  Vibration                       6
  Freq [cm^-1]                 441.6558
  Irrep                           Ag
  Reduced mass [u]             31.9721
  Force const [mDyne/A]         3.6744
  Turning point v=0 [a0]        0.0923
  RMS dev v=0 [a0 u^1/2]        0.3692
  Char temp [K]                635.4444
  ----------------------------------------------------------------------------------
      1   S                0.00  0.00  0.71
      2   S               -0.00  0.00 -0.71

  ==> Thermochemistry Components <==

  Entropy, S
    Electronic S            0.000 [cal/(mol K)]        0.000 [J/(mol K)]       0.00000000 [mEh/K] (multiplicity = 1)
    Translational S        38.385 [cal/(mol K)]      160.603 [J/(mol K)]       0.06117054 [mEh/K] (mol. weight = 63.9441 [u], P = 101325.00 [Pa])
    Rotational S           14.169 [cal/(mol K)]       59.283 [J/(mol K)]       0.02257986 [mEh/K] (symmetry no. = 2)
    Vibrational S           0.821 [cal/(mol K)]        3.437 [J/(mol K)]       0.00130901 [mEh/K]
  Total S                  53.376 [cal/(mol K)]      223.323 [J/(mol K)]       0.08505941 [mEh/K]
  Correction S              0.000 [cal/(mol K)]        0.000 [J/(mol K)]       0.00000000 [mEh/K]

  Constant volume heat capacity, Cv
    Electronic Cv           0.000 [cal/(mol K)]        0.000 [J/(mol K)]       0.00000000 [mEh/K]
    Translational Cv        2.981 [cal/(mol K)]       12.472 [J/(mol K)]       0.00475022 [mEh/K]
    Rotational Cv           1.987 [cal/(mol K)]        8.314 [J/(mol K)]       0.00316681 [mEh/K]
    Vibrational Cv          1.379 [cal/(mol K)]        5.771 [J/(mol K)]       0.00219804 [mEh/K]
  Total Cv                  6.347 [cal/(mol K)]       26.557 [J/(mol K)]       0.01011507 [mEh/K]
  Correction Cv             0.000 [cal/(mol K)]        0.000 [J/(mol K)]       0.00000000 [mEh/K]

  Constant pressure heat capacity, Cp
    Electronic Cp           0.000 [cal/(mol K)]        0.000 [J/(mol K)]       0.00000000 [mEh/K]
    Translational Cp        4.968 [cal/(mol K)]       20.786 [J/(mol K)]       0.00791703 [mEh/K]
    Rotational Cp           1.987 [cal/(mol K)]        8.314 [J/(mol K)]       0.00316681 [mEh/K]
    Vibrational Cp          1.379 [cal/(mol K)]        5.771 [J/(mol K)]       0.00219804 [mEh/K]
  Total Cp                  8.335 [cal/(mol K)]       34.872 [J/(mol K)]       0.01328188 [mEh/K]
  Correction Cp             0.000 [cal/(mol K)]        0.000 [J/(mol K)]       0.00000000 [mEh/K]

  ==> Thermochemistry Energy Analysis <==

  Raw electronic energy, E0
  Total E0, Electronic energy at well bottom at 0 [K]                 -796.28543840 [Eh]

  Zero-point energy, ZPE_vib = Sum_i nu_i / 2
    Electronic ZPE          0.000 [kcal/mol]        0.000 [kJ/mol]       0.00000000 [Eh]
    Translational ZPE       0.000 [kcal/mol]        0.000 [kJ/mol]       0.00000000 [Eh]
    Rotational ZPE          0.000 [kcal/mol]        0.000 [kJ/mol]       0.00000000 [Eh]
    Vibrational ZPE         0.631 [kcal/mol]        2.642 [kJ/mol]       0.00100617 [Eh]         220.828 [cm^-1]
  Correction ZPE            0.631 [kcal/mol]        2.642 [kJ/mol]       0.00100617 [Eh]         220.828 [cm^-1]
  Total ZPE, Electronic energy at 0 [K]                               -796.28443223 [Eh]

  Thermal Energy, E (includes ZPE)
    Electronic E            0.000 [kcal/mol]        0.000 [kJ/mol]       0.00000000 [Eh]
    Translational E         0.889 [kcal/mol]        3.718 [kJ/mol]       0.00141628 [Eh]
    Rotational E            0.592 [kcal/mol]        2.479 [kJ/mol]       0.00094418 [Eh]
    Vibrational E           0.801 [kcal/mol]        3.353 [kJ/mol]       0.00127716 [Eh]
  Correction E              2.283 [kcal/mol]        9.551 [kJ/mol]       0.00363762 [Eh]
  Total E, Electronic energy at  298.15 [K]                           -796.28180078 [Eh]

  Enthalpy, H_trans = E_trans + k_B * T
    Electronic H            0.000 [kcal/mol]        0.000 [kJ/mol]       0.00000000 [Eh]
    Translational H         1.481 [kcal/mol]        6.197 [kJ/mol]       0.00236046 [Eh]
    Rotational H            0.592 [kcal/mol]        2.479 [kJ/mol]       0.00094418 [Eh]
    Vibrational H           0.801 [kcal/mol]        3.353 [kJ/mol]       0.00127716 [Eh]
  Correction H              2.875 [kcal/mol]       12.030 [kJ/mol]       0.00458181 [Eh]
  Total H, Enthalpy at  298.15 [K]                                    -796.28085659 [Eh]

  Gibbs free energy, G = H - T * S
    Electronic G            0.000 [kcal/mol]        0.000 [kJ/mol]       0.00000000 [Eh]
    Translational G        -9.963 [kcal/mol]      -41.686 [kJ/mol]      -0.01587754 [Eh]
    Rotational G           -3.632 [kcal/mol]      -15.196 [kJ/mol]      -0.00578800 [Eh]
    Vibrational G           0.557 [kcal/mol]        2.328 [kJ/mol]       0.00088688 [Eh]
  Correction G            -13.039 [kcal/mol]      -54.554 [kJ/mol]      -0.02077866 [Eh]
  Total G, Free enthalpy at  298.15 [K]                               -796.30621705 [Eh]

    Psi4 stopped on: Tuesday, 02 February 2021 11:40AM
    Psi4 wall time for execution: 0:11:54.94

*** Psi4 exiting successfully. Buy a developer a beer!
