                               Psi4 1.4a2.dev191

  ==> Input File <==

--------------------------------------------------------------------------
memory 10 GB

molecule  {
-1 2
S
S 1 r1
r1 = 2.0
}

set {
reference uks
basis aug-cc-pvtz
g_convergence gau_verytight
dft_spherical_points 590
dft_radial_points 99
}

optimize('wb97x-d')
frequencies('wb97x-d')

--------------------------------------------------------------------------

    Molecular point group: d2h
  Charge       = -1
  Multiplicity = 2
  Basis Set: AUG-CC-PVTZ
    Blend: AUG-CC-PVTZ
  Basis Set: (AUG-CC-PVTZ AUX)
    Blend: AUG-CC-PVTZ-JKFIT
  @DF-UKS Final Energy:  -796.45457363193304
    Total Energy =                       -796.4545736319330445
    Molecular point group: d2h
  Basis Set: AUG-CC-PVTZ
    Blend: AUG-CC-PVTZ
  Basis Set: (AUG-CC-PVTZ AUX)
    Blend: AUG-CC-PVTZ-JKFIT
  Basis Set: AUG-CC-PVTZ
    Blend: AUG-CC-PVTZ
  Basis Set: (AUG-CC-PVTZ AUX)
    Blend: AUG-CC-PVTZ-JKFIT
  @DF-UKS Final Energy:  -796.45459752472334
    Total Energy =                       -796.4545975247234537
  Basis Set: AUG-CC-PVTZ
    Blend: AUG-CC-PVTZ
  Basis Set: (AUG-CC-PVTZ AUX)
    Blend: AUG-CC-PVTZ-JKFIT
  Basis Set: AUG-CC-PVTZ
    Blend: AUG-CC-PVTZ
  @DF-UKS Final Energy:  -796.45460113579350
    Total Energy =                       -796.4546011357934958
  @DF-UKS Final Energy:  -796.45460113775744
    Total Energy =                       -796.4546011377574359
  **** Optimization is complete! (in 4 steps) ****
    Final optimized geometry and variables:
  @DF-UKS Final Energy:  -796.45460113775755
    Total Energy =                       -796.4546011377575496
  @DF-UKS Final Energy:  -796.45460113775721
    Total Energy =                       -796.4546011377570949
  Basis Set: (AUG-CC-PVTZ AUX)
    Blend: AUG-CC-PVTZ-JKFIT
  Basis Set: AUG-CC-PVTZ
    Blend: AUG-CC-PVTZ
  Basis Set: (AUG-CC-PVTZ AUX)
    Blend: AUG-CC-PVTZ-JKFIT
  @DF-UKS Final Energy:  -796.45460097502792
    Total Energy =                       -796.4546009750278017
  Basis Set: AUG-CC-PVTZ
    Blend: AUG-CC-PVTZ
  Basis Set: (AUG-CC-PVTZ AUX)
    Blend: AUG-CC-PVTZ-JKFIT
    Molecular point group: d2h
  Charge       = -1
  Multiplicity = 2
  Basis Set: AUG-CC-PVTZ
    Blend: AUG-CC-PVTZ
  Basis Set: (AUG-CC-PVTZ AUX)
    Blend: AUG-CC-PVTZ-JKFIT

    Orbital Energies [Eh]
    ---------------------

    Alpha Occupied:

       1B1u  -88.840906     1Ag   -88.840898     2Ag    -7.847861
       2B1u   -7.847771     1B3u   -5.797671     1B2g   -5.797646
       3Ag    -5.796998     3B1u   -5.796607     1B2u   -5.788009
       1B3g   -5.787984     4Ag    -0.651952     4B1u   -0.472934
       5Ag    -0.220325     2B3u   -0.206352     2B2u   -0.183891
       2B2g   -0.088599     2B3g   -0.063408

    Alpha Virtual:

       5B1u    0.174905     6Ag     0.227727     3B3u    0.235711
       3B2u    0.238914     3B2g    0.249242     3B3g    0.252599
       7Ag     0.268952     6B1u    0.275696     7B1u    0.367227
       1B1g    0.389199     8Ag     0.389360     4B3u    0.434984
       4B2u    0.442774     9Ag     0.470242     1Au     0.483893
       8B1u    0.484172     4B2g    0.540955     9B1u    0.541109
       4B3g    0.543876     5B3u    0.655207     5B2u    0.666998
      10B1u    0.753084     6B3u    0.762760    10Ag     0.763142
       5B2g    0.766520     6B2u    0.774818     5B3g    0.775830
      11Ag     0.784158     2B1g    0.800741    12Ag     0.801988
      13Ag     0.873929     2Au     0.881624    11B1u    0.881670
       7B2u    0.923562     7B3u    0.923563     6B2g    0.949544
       6B3g    0.963376     3B1g    0.988925    14Ag     0.989486
      12B1u    1.061008     7B3g    1.063320     7B2g    1.063321
       8B3u    1.218008     8B2u    1.228392    13B1u    1.255191
       3Au     1.257232    14B1u    1.271408     8B2g    1.421270
       8B3g    1.432328    15Ag     1.499609    15B1u    1.670495
       4B1g    2.021002    16Ag     2.021263    16B1u    2.069545
       9B3u    2.075159     9B2u    2.089465     4Au     2.093476
      17B1u    2.095312    17Ag     2.191103     9B2g    2.198219
       9B3g    2.217097    10B3u    2.248970    10B2u    2.263650
      18Ag     2.297684     5B1g    2.299292    19Ag     2.308309
      11B3u    2.309070    11B2u    2.330004    12B3u    2.349116
      12B2u    2.349357    10B2g    2.407853    10B3g    2.407866
      11B2g    2.531785    18B1u    2.535522     5Au     2.536170
      11B3g    2.548788    19B1u    2.655272    20Ag     2.740287
      12B2g    2.836167    12B3g    2.853340    20B1u    3.895658
      21Ag     4.689082    21B1u    5.519613

    Beta Occupied:

       1B1u  -88.838160     1Ag   -88.838154     2Ag    -7.845075
       2B1u   -7.844964     3Ag    -5.795291     3B1u   -5.794898
       1B3u   -5.788218     1B2g   -5.788187     1B2u   -5.786025
       1B3g   -5.786000     4Ag    -0.635798     4B1u   -0.442296
       5Ag    -0.209592     2B2u   -0.177754     2B3u   -0.155083
       2B3g   -0.055083

    Beta Virtual:

       2B2g    0.145455     5B1u    0.177678     6Ag     0.228940
       3B3u    0.237539     3B2u    0.239071     3B3g    0.253309
       3B2g    0.258993     7Ag     0.268688     6B1u    0.282794
       7B1u    0.369067     8Ag     0.392002     1B1g    0.392042
       4B2u    0.443169     4B3u    0.446903     9Ag     0.472567
       8B1u    0.488243     1Au     0.488643     9B1u    0.542902
       4B3g    0.544239     4B2g    0.545659     5B3u    0.664418
       5B2u    0.668812    10B1u    0.756751    10Ag     0.765130
       5B2g    0.774164     6B2u    0.777227     5B3g    0.777255
       6B3u    0.778471    11Ag     0.789259     2B1g    0.812724
      12Ag     0.813486    13Ag     0.880795     2Au     0.900625
      11B1u    0.901450     7B3u    0.926377     7B2u    0.926473
       6B3g    0.966120     6B2g    0.966655     3B1g    0.994881
      14Ag     0.995042     7B2g    1.067407     7B3g    1.067546
      12B1u    1.068517     8B3u    1.223817     8B2u    1.229128
      13B1u    1.259424     3Au     1.260534    14B1u    1.273957
       8B2g    1.431473     8B3g    1.434493    15Ag     1.508076
      15B1u    1.680109     4B1g    2.035401    16Ag     2.035421
      16B1u    2.076395     9B3u    2.086293     9B2u    2.092078
      17B1u    2.107371     4Au     2.107512    17Ag     2.194288
       9B2g    2.218945     9B3g    2.222560    10B3u    2.265146
      10B2u    2.266940     5B1g    2.310724    18Ag     2.311936
      19Ag     2.313482    11B2u    2.338044    11B3u    2.338125
      12B2u    2.368746    12B3u    2.368874    10B3g    2.427603
      10B2g    2.427734     5Au     2.548989    18B1u    2.550374
      11B2g    2.551944    11B3g    2.553490    19B1u    2.662865
      20Ag     2.746517    12B2g    2.854281    12B3g    2.856750
      20B1u    3.899833    21Ag     4.698252    21B1u    5.526288

    Final Occupation by Irrep:
             Ag   B1g   B2g   B3g    Au   B1u   B2u   B3u
    DOCC [     5,    0,    1,    2,    0,    4,    2,    2 ]
    SOCC [     0,    0,    1,    0,    0,    0,    0,    0 ]

  @DF-UKS Final Energy:  -796.45460096126965

   => Energetics <=

    Nuclear Repulsion Energy =             67.4751170563044838
    One-Electron Energy =               -1242.1962955388974024
    Two-Electron Energy =                 415.8502426661942764
    DFT Exchange-Correlation Energy =     -37.5836542012668318
    Empirical Dispersion Energy =          -0.0000109436041160
    VV10 Nonlocal Energy =                  0.0000000000000000
    Total Energy =                       -796.4546009612696480

  UHF NO Occupations:
  HONO-2 :    4B1u 1.9995144
  HONO-1 :    2B3u 1.9978373
  HONO-0 :    2B2g 1.0000000
  LUNO+0 :    3B3u 0.0021627
  LUNO+1 :    5B1u 0.0004856
  LUNO+2 :    6 Ag 0.0003855
  LUNO+3 :    3B3g 0.0001336

Computation Completed

Properties will be evaluated at   0.000000,   0.000000,   0.000000 [a0]

Properties computed using the SCF density matrix

  Nuclear Dipole Moment: [e a0]
     X:     0.0000      Y:     0.0000      Z:     0.0000

  Electronic Dipole Moment: [e a0]
     X:     0.0000      Y:     0.0000      Z:     0.0000

  Dipole Moment: [e a0]
     X:     0.0000      Y:     0.0000      Z:     0.0000     Total:     0.0000

  Dipole Moment: [D]
     X:     0.0000      Y:     0.0000      Z:     0.0000     Total:     0.0000

*** tstop() called on c2-1.compute.lan at Tue Feb  2 12:00:33 2021
Module time:
	user time   =       9.88 seconds =       0.16 minutes
	system time =       0.10 seconds =       0.00 minutes
	total time  =         10 seconds =       0.17 minutes
Total time:
	user time   =      97.86 seconds =       1.63 minutes
	system time =       1.17 seconds =       0.02 minutes
	total time  =         99 seconds =       1.65 minutes

*** tstart() called on c2-1.compute.lan
*** at Tue Feb  2 12:00:33 2021

         ------------------------------------------------------------
                                   SCF GRAD
                          Rob Parrish, Justin Turney,
                       Andy Simmonett, and Alex Sokolov
         ------------------------------------------------------------

  ==> Geometry <==

    Molecular point group: d2h
    Full point group: D_inf_h

    Geometry (in Angstrom), charge = -1, multiplicity = 2:

       Center              X                  Y                   Z               Mass
    ------------   -----------------  -----------------  -----------------  -----------------
         S            0.000000000000     0.000000000000    -1.003846838965    31.972071174400
         S            0.000000000000     0.000000000000     1.003846838965    31.972071174400

  Nuclear repulsion =   67.475117056304484

  ==> Basis Set <==

  Basis Set: AUG-CC-PVTZ
    Blend: AUG-CC-PVTZ
    Number of shells: 32
    Number of basis function: 100
    Number of Cartesian functions: 118
    Spherical Harmonics?: true
    Max angular momentum: 3

  ==> DFJKGrad: Density-Fitted SCF Gradients <==

    Gradient:                    1
    J tasked:                  Yes
    K tasked:                  Yes
    wK tasked:                 Yes
    Omega:               2.000E-01
    OpenMP threads:              1
    Integrals threads:           1
    Memory [MiB]:             7152
    Schwarz Cutoff:          0E+00
    Fitting Condition:       1E-10

   => Auxiliary Basis Set <=

  Basis Set: (AUG-CC-PVTZ AUX)
    Blend: AUG-CC-PVTZ-JKFIT
    Number of shells: 84
    Number of basis function: 292
    Number of Cartesian functions: 360
    Spherical Harmonics?: true
    Max angular momentum: 4

  ==> DFT Potential <==

   => Composite Functional: WB97X-D <=

    wB97X-D Hyb-GGA Exchange-Correlation Functional

    J.-D. Chai and M. Head-Gordon, Phys. Chem. Chem. Phys. 10, 6615 (2008)

    Deriv               =              1
    GGA                 =           TRUE
    Meta                =          FALSE

    Exchange Hybrid     =           TRUE
    MP2 Hybrid          =          FALSE

   => Exchange-Correlation Functionals <=

    1.0000   wB97D range-separated functional

   => Exact (HF) Exchange <=

    0.7780            HF,LR [omega = 0.2000]
    0.2220               HF

   => Molecular Quadrature <=

    Radial Scheme          =       TREUTLER
    Pruning Scheme         =           NONE
    Nuclear Scheme         =       TREUTLER

    BS radius alpha        =              1
    Pruning alpha          =              1
    Radial Points          =             99
    Spherical Points       =            590
    Total Points           =         113376
    Total Blocks           =            984
    Max Points             =            256
    Max Functions          =            100
    Weights Tolerance      =       1.00E-15

  -Total Gradient:
     Atom            X                  Y                   Z
    ------   -----------------  -----------------  -----------------
       1        0.000000000000    -0.000000000000     0.000271182024
       2        0.000000000000     0.000000000000    -0.000271182024

*** tstop() called on c2-1.compute.lan at Tue Feb  2 12:00:37 2021
Module time:
	user time   =       4.03 seconds =       0.07 minutes
	system time =       0.02 seconds =       0.00 minutes
	total time  =          4 seconds =       0.07 minutes
Total time:
	user time   =     101.89 seconds =       1.70 minutes
	system time =       1.19 seconds =       0.02 minutes
	total time  =        103 seconds =       1.72 minutes

         ----------------------------------------------------------
                                   FINDIF
                     R. A. King and Jonathon Misiewicz
         ---------------------------------------------------------

  Computing second-derivative from gradients using projected,
  symmetry-adapted, cartesian coordinates.

  3 gradients passed in, including the reference geometry.
  Generating complete list of displacements from unique ones.

-------------------------------------------------------------

  ==> Harmonic Vibrational Analysis <==

  non-mass-weighted Hessian:       Symmetric? True   Hermitian? True   Lin Dep Dim?  5 (0)
  projection of translations (True) and rotations (True) removed 5 degrees of freedom (5)
  total projector:                 Symmetric? True   Hermitian? True   Lin Dep Dim?  5 (5)
  mass-weighted Hessian:           Symmetric? True   Hermitian? True   Lin Dep Dim?  5 (0)
  pre-proj  low-frequency mode:    0.0000  [cm^-1]
  pre-proj  low-frequency mode:    0.0000  [cm^-1]
  pre-proj  low-frequency mode:    0.0000  [cm^-1]
  pre-proj  low-frequency mode:    0.0000  [cm^-1]
  pre-proj  low-frequency mode:    0.0000  [cm^-1]
  pre-proj  all modes:['0.0000' '0.0000' '0.0000' '0.0000' '0.0000' '597.7776']
  projected mass-weighted Hessian: Symmetric? True   Hermitian? True   Lin Dep Dim?  5 (5)
  post-proj low-frequency mode:    0.0000i [cm^-1] (TR)
  post-proj low-frequency mode:    0.0000  [cm^-1] (TR)
  post-proj low-frequency mode:    0.0000  [cm^-1] (TR)
  post-proj low-frequency mode:    0.0000  [cm^-1] (TR)
  post-proj low-frequency mode:    0.0000  [cm^-1] (TR)
  post-proj  all modes:['0.0000i' '0.0000' '0.0000' '0.0000' '0.0000' '597.7776']

  Vibration                       6
  Freq [cm^-1]                 597.7776
  Irrep                           Ag
  Reduced mass [u]             31.9721
  Force const [mDyne/A]         6.7313
  Turning point v=0 [a0]        0.0794
  RMS dev v=0 [a0 u^1/2]        0.3173
  Char temp [K]                860.0688
  ----------------------------------------------------------------------------------
      1   S                0.00  0.00  0.71
      2   S                0.00  0.00 -0.71

  ==> Thermochemistry Components <==

  Entropy, S
    Electronic S            1.377 [cal/(mol K)]        5.763 [J/(mol K)]       0.00219507 [mEh/K] (multiplicity = 2)
    Translational S        38.385 [cal/(mol K)]      160.603 [J/(mol K)]       0.06117054 [mEh/K] (mol. weight = 63.9441 [u], P = 101325.00 [Pa])
    Rotational S           13.875 [cal/(mol K)]       58.053 [J/(mol K)]       0.02211131 [mEh/K] (symmetry no. = 2)
    Vibrational S           0.453 [cal/(mol K)]        1.897 [J/(mol K)]       0.00072269 [mEh/K]
  Total S                  54.091 [cal/(mol K)]      226.317 [J/(mol K)]       0.08619960 [mEh/K]
  Correction S              0.000 [cal/(mol K)]        0.000 [J/(mol K)]       0.00000000 [mEh/K]

  Constant volume heat capacity, Cv
    Electronic Cv           0.000 [cal/(mol K)]        0.000 [J/(mol K)]       0.00000000 [mEh/K]
    Translational Cv        2.981 [cal/(mol K)]       12.472 [J/(mol K)]       0.00475022 [mEh/K]
    Rotational Cv           1.987 [cal/(mol K)]        8.314 [J/(mol K)]       0.00316681 [mEh/K]
    Vibrational Cv          1.037 [cal/(mol K)]        4.337 [J/(mol K)]       0.00165179 [mEh/K]
  Total Cv                  6.005 [cal/(mol K)]       25.123 [J/(mol K)]       0.00956882 [mEh/K]
  Correction Cv             0.000 [cal/(mol K)]        0.000 [J/(mol K)]       0.00000000 [mEh/K]

  Constant pressure heat capacity, Cp
    Electronic Cp           0.000 [cal/(mol K)]        0.000 [J/(mol K)]       0.00000000 [mEh/K]
    Translational Cp        4.968 [cal/(mol K)]       20.786 [J/(mol K)]       0.00791703 [mEh/K]
    Rotational Cp           1.987 [cal/(mol K)]        8.314 [J/(mol K)]       0.00316681 [mEh/K]
    Vibrational Cp          1.037 [cal/(mol K)]        4.337 [J/(mol K)]       0.00165179 [mEh/K]
  Total Cp                  7.992 [cal/(mol K)]       33.437 [J/(mol K)]       0.01273563 [mEh/K]
  Correction Cp             0.000 [cal/(mol K)]        0.000 [J/(mol K)]       0.00000000 [mEh/K]

  ==> Thermochemistry Energy Analysis <==

  Raw electronic energy, E0
  Total E0, Electronic energy at well bottom at 0 [K]                 -796.45460114 [Eh]

  Zero-point energy, ZPE_vib = Sum_i nu_i / 2
    Electronic ZPE          0.000 [kcal/mol]        0.000 [kJ/mol]       0.00000000 [Eh]
    Translational ZPE       0.000 [kcal/mol]        0.000 [kJ/mol]       0.00000000 [Eh]
    Rotational ZPE          0.000 [kcal/mol]        0.000 [kJ/mol]       0.00000000 [Eh]
    Vibrational ZPE         0.855 [kcal/mol]        3.576 [kJ/mol]       0.00136184 [Eh]         298.889 [cm^-1]
  Correction ZPE            0.855 [kcal/mol]        3.576 [kJ/mol]       0.00136184 [Eh]         298.889 [cm^-1]
  Total ZPE, Electronic energy at 0 [K]                               -796.45323930 [Eh]

  Thermal Energy, E (includes ZPE)
    Electronic E            0.000 [kcal/mol]        0.000 [kJ/mol]       0.00000000 [Eh]
    Translational E         0.889 [kcal/mol]        3.718 [kJ/mol]       0.00141628 [Eh]
    Rotational E            0.592 [kcal/mol]        2.479 [kJ/mol]       0.00094418 [Eh]
    Vibrational E           0.956 [kcal/mol]        3.999 [kJ/mol]       0.00152302 [Eh]
  Correction E              2.437 [kcal/mol]       10.196 [kJ/mol]       0.00388348 [Eh]
  Total E, Electronic energy at  298.15 [K]                           -796.45071765 [Eh]

  Enthalpy, H_trans = E_trans + k_B * T
    Electronic H            0.000 [kcal/mol]        0.000 [kJ/mol]       0.00000000 [Eh]
    Translational H         1.481 [kcal/mol]        6.197 [kJ/mol]       0.00236046 [Eh]
    Rotational H            0.592 [kcal/mol]        2.479 [kJ/mol]       0.00094418 [Eh]
    Vibrational H           0.956 [kcal/mol]        3.999 [kJ/mol]       0.00152302 [Eh]
  Correction H              3.029 [kcal/mol]       12.675 [kJ/mol]       0.00482767 [Eh]
  Total H, Enthalpy at  298.15 [K]                                    -796.44977347 [Eh]

  Gibbs free energy, G = H - T * S
    Electronic G           -0.411 [kcal/mol]       -1.718 [kJ/mol]      -0.00065446 [Eh]
    Translational G        -9.963 [kcal/mol]      -41.686 [kJ/mol]      -0.01587754 [Eh]
    Rotational G           -3.544 [kcal/mol]      -14.830 [kJ/mol]      -0.00564830 [Eh]
    Vibrational G           0.821 [kcal/mol]        3.433 [kJ/mol]       0.00130755 [Eh]
  Correction G            -13.098 [kcal/mol]      -54.801 [kJ/mol]      -0.02087274 [Eh]
  Total G, Free enthalpy at  298.15 [K]                               -796.47547388 [Eh]

    Psi4 stopped on: Tuesday, 02 February 2021 12:00PM
    Psi4 wall time for execution: 0:01:43.46

*** Psi4 exiting successfully. Buy a developer a beer!
