                               Psi4 1.3.2 release

  ==> Input File <==

--------------------------------------------------------------------------
memory 46 GB

basis jerome {
assign pot
assign S aug-cc-pV(T+d)Z

[pot]
spherical
****
 K  0
 S 23 1.00
    2.709796E+07     4.136110E-07
    3.592856E+06     3.860330E-06
    7.222638E+05     2.394640E-05
    1.833976E+05     1.157540E-04
    5.464812E+04     4.697010E-04
    1.830913E+04     1.673720E-03
    6.712501E+03     5.370450E-03
    2.643719E+03     1.572510E-02
    1.103835E+03     4.193360E-02
    4.836777E+02     9.987620E-02
    2.206245E+02     2.019680E-01
    1.041117E+02     3.146270E-01
    5.052749E+01     3.107540E-01
    2.485247E+01     1.421920E-01
    1.128102E+01     1.658490E-02
    5.510166E+00    -2.759760E-04
    2.706914E+00     5.158310E-04
    1.122807E+00    -2.268950E-04
    5.236385E-01     6.652980E-05
    2.355180E-01    -3.685150E-05
    4.157977E-02     1.925250E-05
    2.555456E-02    -2.108420E-05
    1.471495E-02     7.044600E-06
 S 23 1.00
    2.709796E+07    -1.188290E-07
    3.592856E+06    -1.108550E-06
    7.222638E+05    -6.881230E-06
    1.833976E+05    -3.324150E-05
    5.464812E+04    -1.350850E-04
    1.830913E+04    -4.814570E-04
    6.712501E+03    -1.552620E-03
    2.643719E+03    -4.578330E-03
    1.103835E+03    -1.247930E-02
    4.836777E+02    -3.094650E-02
    2.206245E+02    -6.855530E-02
    1.041117E+02    -1.268300E-01
    5.052749E+01    -1.745020E-01
    2.485247E+01    -9.089560E-02
    1.128102E+01     2.506960E-01
    5.510166E+00     5.589630E-01
    2.706914E+00     3.284370E-01
    1.122807E+00     3.392170E-02
    5.236385E-01    -2.100280E-03
    2.355180E-01     1.383960E-03
    4.157977E-02    -5.315630E-04
    2.555456E-02     5.770310E-04
    1.471495E-02    -1.931440E-04
 S 23 1.00
    2.709796E+07     3.917470E-08
    3.592856E+06     3.650640E-07
    7.222638E+05     2.269460E-06
    1.833976E+05     1.094290E-05
    5.464812E+04     4.457360E-05
    1.830913E+04     1.584480E-04
    6.712501E+03     5.128440E-04
    2.643719E+03     1.507690E-03
    1.103835E+03     4.136940E-03
    4.836777E+02     1.024690E-02
    2.206245E+02     2.306520E-02
    1.041117E+02     4.308900E-02
    5.052749E+01     6.238120E-02
    2.485247E+01     3.270420E-02
    1.128102E+01    -1.021980E-01
    5.510166E+00    -3.317970E-01
    2.706914E+00    -3.030100E-01
    1.122807E+00     3.098410E-01
    5.236385E-01     6.732700E-01
    2.355180E-01     2.812200E-01
    4.157977E-02     9.376240E-03
    2.555456E-02    -6.955720E-03
    1.471495E-02     2.069460E-03
 S 23 1.00
    2.709796E+07    -7.564440E-09
    3.592856E+06    -7.055390E-08
    7.222638E+05    -4.380820E-07
    1.833976E+05    -2.115540E-06
    5.464812E+04    -8.601300E-06
    1.830913E+04    -3.064440E-05
    6.712501E+03    -9.892550E-05
    2.643719E+03    -2.917760E-04
    1.103835E+03    -7.977860E-04
    4.836777E+02    -1.985820E-03
    2.206245E+02    -4.449740E-03
    1.041117E+02    -8.390260E-03
    5.052749E+01    -1.206000E-02
    2.485247E+01    -6.568410E-03
    1.128102E+01     2.061430E-02
    5.510166E+00     6.770060E-02
    2.706914E+00     6.639570E-02
    1.122807E+00    -8.237770E-02
    5.236385E-01    -1.727150E-01
    2.355180E-01    -2.310290E-01
    4.157977E-02     5.090040E-01
    2.555456E-02     3.472180E-01
    1.471495E-02     2.809620E-01
 S 1 1.00
    2.555456E-02     1.000000E+00
 S 1 1.00
    1.471495E-02     1.000000E+00
 S 1 1.00
    8.470000E-03     1.000000E+00
 P 16 1.00
    9.533309E+03     4.212010E-05
    1.852081E+03     5.068300E-04
    5.464251E+02     3.311700E-03
    1.966947E+02     1.536840E-02
    7.964112E+01     5.457060E-02
    3.488324E+01     1.473880E-01
    1.604479E+01     2.879240E-01
    7.575632E+00     3.750810E-01
    3.672548E+00     2.545160E-01
    1.771130E+00     6.059280E-02
    8.515199E-01     2.508370E-03
    4.016017E-01     6.688870E-04
    1.851933E-01    -1.486150E-04
    5.523390E-02     4.936010E-05
    2.431085E-02    -3.513850E-05
    1.080339E-02     1.171450E-05
 P 16 1.00
    9.533309E+03    -1.280760E-05
    1.852081E+03    -1.547870E-04
    5.464251E+02    -1.010940E-03
    1.966947E+02    -4.738330E-03
    7.964112E+01    -1.703260E-02
    3.488324E+01    -4.754130E-02
    1.604479E+01    -9.560810E-02
    7.575632E+00    -1.337000E-01
    3.672548E+00    -7.425060E-02
    1.771130E+00     1.646810E-01
    8.515199E-01     4.057630E-01
    4.016017E-01     4.113600E-01
    1.851933E-01     1.734240E-01
    5.523390E-02     1.253640E-02
    2.431085E-02    -3.267140E-03
    1.080339E-02     1.039680E-03
 P 16 1.00
    9.533309E+03     1.764010E-06
    1.852081E+03     2.124880E-05
    5.464251E+02     1.392500E-04
    1.966947E+02     6.509140E-04
    7.964112E+01     2.349940E-03
    3.488324E+01     6.547470E-03
    1.604479E+01     1.326270E-02
    7.575632E+00     1.848520E-02
    3.672548E+00     1.025530E-02
    1.771130E+00    -2.652150E-02
    8.515199E-01    -6.086460E-02
    4.016017E-01    -7.474220E-02
    1.851933E-01    -4.870880E-02
    5.523390E-02     2.245720E-01
    2.431085E-02     5.839280E-01
    1.080339E-02     2.980960E-01
 P 1 1.00
    5.523390E-02     1.000000E+00
 P 1 1.00
    1.080339E-02     1.000000E+00
 P 1 1.00
    4.800000E-03     1.000000E+00
 D 6 1.00
    5.670903E+00     8.285900E-03
    1.459042E+00     2.332530E-02
    5.431827E-01     4.878080E-02
    1.346875E-01     7.349020E-02
    5.516013E-02     2.387630E-01
    1.501876E-02     8.253200E-01
 D 1 1.00
    5.516013E-02     1.000000E+00
 D 1 1.00
    1.501876E-02     1.000000E+00
 D 1 1.00
    6.010000E-03     1.000000E+00
 F 1 1.00
    8.493750E-02     1.000000E+00
 F 1 1.00
    3.398000E-02     1.000000E+00
 ****
}

molecule  {
0 2
S   -1.161275382100    1.069901289800    0.000000000000
S   -1.160606027300   -1.069614517300    0.000000000000
K    1.905243735100   -0.000235314100    0.000000000000
}
set {
basis jerome
reference uhf
g_convergence gau_verytight
e_convergence 10
scf_type pk
freeze_core true
geom_maxiter 100
}

set ccenergy {
e_convergence 10
r_convergence 10
}

e = energy('ccsd(t)')

print_out('Stephenergy {}'.format(e))

--------------------------------------------------------------------------

    Molecular point group: cs

    Geometry (in Angstrom), charge = 0, multiplicity = 2:

       Center              X                  Y                   Z               Mass
    ------------   -----------------  -----------------  -----------------  -----------------
         S           -1.161275382096     1.069901289788     0.000000000000    31.972071174400
         S           -1.160606027296    -1.069614517312     0.000000000000    31.972071174400
         K            1.905243735104    -0.000235314112     0.000000000000    38.963706486400

  Charge       = 0
  Multiplicity = 2
  Basis Set: JEROME
    Blend: AUG-CC-PV(T+D)Z + POT

    Orbital Energies [Eh]
    ---------------------

    Alpha Occupied:

       1Ap  -133.553360     2Ap   -91.913855     3Ap   -91.913717
       4Ap   -14.509805     1App  -11.539793     5Ap   -11.539709
       6Ap   -11.539644     7Ap    -8.910560     8Ap    -8.910366
       2App   -6.599639     3App   -6.599477     9Ap    -6.589242
      10Ap    -6.588945    11Ap    -6.587822    12Ap    -6.587691
      13Ap    -1.768372     4App   -0.977584    14Ap    -0.976881
      15Ap    -0.976353    16Ap    -0.934654    17Ap    -0.767951
       5App   -0.412298    18Ap    -0.398445    19Ap    -0.384190
       6App   -0.305855    20Ap    -0.271066

    Alpha Virtual:

      21Ap    -0.018249     7App    0.002710    22Ap     0.003119
      23Ap     0.006294    24Ap     0.016790     8App    0.017293
      25Ap     0.017460     9App    0.020598    26Ap     0.021400
      27Ap     0.022376    10App    0.022819    28Ap     0.028562
      29Ap     0.033679    30Ap     0.051783    11App    0.051897
      31Ap     0.055557    12App    0.059247    32Ap     0.062178
      13App    0.074929    33Ap     0.075480    34Ap     0.088349
      35Ap     0.106482    36Ap     0.106653    37Ap     0.125973
      14App    0.126485    38Ap     0.128879    39Ap     0.129113
      15App    0.129915    16App    0.133705    40Ap     0.134596
      41Ap     0.152095    42Ap     0.153455    17App    0.154077
      43Ap     0.166022    18App    0.167617    44Ap     0.175496
      19App    0.179288    20App    0.189591    45Ap     0.197931
      46Ap     0.209172    47Ap     0.221898    21App    0.235556
      48Ap     0.248879    49Ap     0.271614    50Ap     0.309055
      51Ap     0.318255    22App    0.333670    52Ap     0.350974
      53Ap     0.358624    23App    0.379641    24App    0.382994
      54Ap     0.384715    55Ap     0.386136    25App    0.389231
      56Ap     0.393953    26App    0.398366    57Ap     0.408848
      27App    0.410581    58Ap     0.430017    59Ap     0.432524
      60Ap     0.441466    28App    0.450455    29App    0.457181
      61Ap     0.465629    30App    0.466758    62Ap     0.492374
      63Ap     0.513027    64Ap     0.532717    31App    0.669890
      32App    0.704891    33App    0.709571    65Ap     0.712577
      66Ap     0.732965    67Ap     0.745458    68Ap     0.781290
      34App    0.802715    69Ap     0.808401    70Ap     0.816534
      35App    0.846330    71Ap     0.850404    72Ap     0.865896
      36App    0.879983    37App    0.907388    73Ap     0.913832
      74Ap     0.939702    75Ap     0.951400    76Ap     0.968783
      77Ap     1.006133    38App    1.013655    39App    1.044282
      78Ap     1.065408    79Ap     1.066585    40App    1.146454
      80Ap     1.172738    81Ap     1.184432    41App    1.189686
      82Ap     1.206489    42App    1.352662    83Ap     1.384623
      84Ap     1.435621    85Ap     1.666039    43App    2.022684
      86Ap     2.032026    44App    2.058766    87Ap     2.064114
      45App    2.073777    88Ap     2.085827    89Ap     2.149569
      46App    2.212133    90Ap     2.278968    47App    2.296518
      91Ap     2.296811    92Ap     2.321212    93Ap     2.375344
      48App    2.392563    94Ap     2.416925    49App    2.419242
      95Ap     2.452077    96Ap     2.466652    50App    2.477380
      51App    2.507299    52App    2.535697    97Ap     2.558918
      53App    2.563995    98Ap     2.634310    99Ap     2.647529
     100Ap     2.687013   101Ap     2.689121    54App    2.818933
     102Ap     2.852908   103Ap     3.897768   104Ap     4.903937
     105Ap     5.740475    55App    7.409714   106Ap     7.413799
     107Ap     7.429807    56App    7.431251    57App    7.433037
     108Ap     7.453328    58App    7.495333   109Ap     7.516853
     110Ap     7.581778   111Ap     7.611345

    Beta Occupied:

       1Ap  -133.553387     2Ap   -91.908203     3Ap   -91.908081
       4Ap   -14.509841     1App  -11.539837     5Ap   -11.539748
       6Ap   -11.539680     7Ap    -8.904415     8Ap    -8.904206
       9Ap    -6.586490    10Ap    -6.586189    11Ap    -6.584259
      12Ap    -6.584139     2App   -6.574857     3App   -6.574759
      13Ap    -1.768564     4App   -0.977792    14Ap    -0.976506
      15Ap    -0.975696    16Ap    -0.894386    17Ap    -0.697269
      18Ap    -0.383806    19Ap    -0.375485     5App   -0.283481
      20Ap    -0.258160

    Beta Virtual:

      21Ap    -0.018263     6App    0.002743    22Ap     0.003133
      23Ap     0.006277    24Ap     0.016784     7App    0.017069
      25Ap     0.017461     8App    0.020630    26Ap     0.021411
      27Ap     0.022450     9App    0.022941    28Ap     0.028567
      29Ap     0.033552    10App    0.044025    30Ap     0.051748
      31Ap     0.055880    11App    0.059744    12App    0.060009
      32Ap     0.062133    13App    0.075150    33Ap     0.075758
      34Ap     0.087914    35Ap     0.106380    36Ap     0.108766
      37Ap     0.126294    14App    0.126589    38Ap     0.128801
      15App    0.129825    39Ap     0.130041    40Ap     0.134658
      16App    0.135366    41Ap     0.151848    42Ap     0.153815
      17App    0.166127    43Ap     0.168209    18App    0.172562
      44Ap     0.175102    19App    0.182949    20App    0.190723
      45Ap     0.204179    46Ap     0.209100    47Ap     0.222722
      21App    0.235862    48Ap     0.249694    49Ap     0.270679
      50Ap     0.315039    51Ap     0.321088    52Ap     0.352495
      22App    0.352932    53Ap     0.362483    54Ap     0.385675
      23App    0.387946    55Ap     0.390250    24App    0.390643
      25App    0.391952    56Ap     0.394072    26App    0.399753
      27App    0.410522    57Ap     0.411008    58Ap     0.432485
      59Ap     0.436268    60Ap     0.444164    28App    0.463366
      29App    0.467614    61Ap     0.470246    30App    0.475077
      62Ap     0.493462    63Ap     0.516540    64Ap     0.532921
      31App    0.693883    65Ap     0.720298    32App    0.736267
      66Ap     0.738696    33App    0.739968    67Ap     0.748548
      68Ap     0.794274    69Ap     0.807994    34App    0.820158
      70Ap     0.834012    71Ap     0.863114    35App    0.880585
      72Ap     0.888956    36App    0.913703    37App    0.914455
      73Ap     0.921064    74Ap     0.943799    75Ap     0.959202
      76Ap     0.976024    77Ap     1.017055    38App    1.026029
      39App    1.054774    78Ap     1.068045    79Ap     1.071631
      40App    1.158668    80Ap     1.180873    81Ap     1.184155
      41App    1.196105    82Ap     1.209395    42App    1.368234
      83Ap     1.386508    84Ap     1.447688    85Ap     1.681883
      43App    2.038317    86Ap     2.046800    44App    2.074454
      87Ap     2.079254    88Ap     2.088145    45App    2.089848
      89Ap     2.151561    46App    2.232787    90Ap     2.280872
      91Ap     2.301491    47App    2.313100    92Ap     2.323943
      93Ap     2.388958    48App    2.406013    94Ap     2.431145
      49App    2.451809    95Ap     2.462202    96Ap     2.489234
      50App    2.501347    51App    2.534233    52App    2.560343
      97Ap     2.575368    53App    2.580961    98Ap     2.640294
      99Ap     2.653611   100Ap     2.691433   101Ap     2.692895
      54App    2.840349   102Ap     2.855800   103Ap     3.901589
     104Ap     4.915151   105Ap     5.750904    55App    7.415975
     106Ap     7.420216   107Ap     7.436435    56App    7.437834
      57App    7.439232   108Ap     7.454415    58App    7.501359
     109Ap     7.517725   110Ap     7.583577   111Ap     7.613317

    Final Occupation by Irrep:
             Ap   App
    DOCC [    20,    5 ]
    SOCC [     0,    1 ]

  @UHF Final Energy: -1394.31053225830101

   => Energetics <=

    Nuclear Repulsion Energy =            162.3926400473563945
    One-Electron Energy =               -2249.9598364425214641
    Two-Electron Energy =                 693.2566641368640603
    Total Energy =                      -1394.3105322583010093

  UHF NO Occupations:
  HONO-2 :   20 Ap 1.9975136
  HONO-1 :    5App 1.9859550
  HONO-0 :    6App 1.0000000
  LUNO+0 :    7App 0.0140450
  LUNO+1 :   21 Ap 0.0024864
  LUNO+2 :   22 Ap 0.0022425
  LUNO+3 :   23 Ap 0.0002942

Computation Completed

Properties will be evaluated at   0.000000,   0.000000,   0.000000 [a0]

Properties computed using the SCF density matrix

  Nuclear Dipole Moment: [e a0]
     X:    -1.7961      Y:     0.0002      Z:     0.0000

  Electronic Dipole Moment: [e a0]
     X:     6.3963      Y:     0.0007      Z:     0.0000

  Dipole Moment: [e a0]
     X:     4.6002      Y:     0.0009      Z:     0.0000     Total:     4.6002

  Dipole Moment: [D]
     X:    11.6925      Y:     0.0023      Z:     0.0000     Total:    11.6925

*** tstop() called on c4-21.compute.lan at Fri Mar  5 14:20:01 2021
Module time:
	user time   =     252.51 seconds =       4.21 minutes
	system time =       7.09 seconds =       0.12 minutes
	total time  =         69 seconds =       1.15 minutes
Total time:
	user time   =     252.51 seconds =       4.21 minutes
	system time =       7.09 seconds =       0.12 minutes
	total time  =         69 seconds =       1.15 minutes
 MINTS: Wrapper to libmints.
   by Justin Turney

   Calculation information:
      Number of threads:                12
      Number of atoms:                   3
      Number of AO shells:              53
      Number of SO shells:              53
      Number of primitives:            287
      Number of atomic orbitals:       199
      Number of basis functions:       169

      Number of irreps:                  2
      Integral cutoff                 0.00e+00
      Number of functions per irrep: [ 111   58 ]

 OEINTS: Overlap, kinetic, potential, dipole, and quadrupole integrals
         stored in file 35.

      Computing two-electron integrals...done
      Computed 51006410 non-zero two-electron integrals.
        Stored in file 33.

*** tstart() called on c4-21.compute.lan
*** at Fri Mar  5 14:21:40 2021

	Wfn Parameters:
	--------------------
	Wavefunction         = CCSD_T
	Number of irreps     = 2
	Number of MOs        = 169
	Number of active MOs = 150
	AO-Basis             = NONE
	Semicanonical        = false
	Reference            = UHF
	Print Level          = 1

	IRREP	# MOs	# FZDC	# DOCC	# SOCC	# VIRT	# FZVR
	-----	-----	------	------	------	------	------
	 Ap	   111	    15	    5	    0	    91	    0
	 App	   58	    4	    1	    1	    52	    0
	Transforming integrals...
	IWL integrals will be deleted.
	(OO|OO)...
	Presorting SO-basis two-electron integrals.
	Sorting File: SO Ints (nn|nn) nbuckets = 1
	Transforming the one-electron integrals and constructing Fock matrices
	Starting AA/AB first half-transformation.
	Sorting AA/AB half-transformed integrals.
	Starting BB first half-transformation.
	Sorting BB half-transformed integrals.
	First half integral transformation complete.
	Starting AA second half-transformation.
	Starting AB second half-transformation.
	Starting BB second half-transformation.
	Two-electron integral transformation complete.
	(OO|OV)...
	Starting AA second half-transformation.
	Starting AB second half-transformation.
	Starting BB second half-transformation.
	Two-electron integral transformation complete.
	(OO|VV)...
	Starting AA second half-transformation.
	Starting AB second half-transformation.
	Starting BB second half-transformation.
	Two-electron integral transformation complete.
	(OV|OO)...
	Starting AA/AB first half-transformation.
	Sorting AA/AB half-transformed integrals.
	Starting BB first half-transformation.
	Sorting BB half-transformed integrals.
	First half integral transformation complete.
	Starting AA second half-transformation.
	Starting AB second half-transformation.
	Starting BB second half-transformation.
	Two-electron integral transformation complete.
	(OV|OV)...
	Starting AA second half-transformation.
	Starting AB second half-transformation.
	Starting BB second half-transformation.
	Two-electron integral transformation complete.
	(OV|VV)...
	Starting AA second half-transformation.
	Starting AB second half-transformation.
	Starting BB second half-transformation.
	Two-electron integral transformation complete.
	(VV|OO)...
	Starting AA/AB first half-transformation.
	Sorting AA/AB half-transformed integrals.
	Starting BB first half-transformation.
	Sorting BB half-transformed integrals.
	First half integral transformation complete.
	Starting AA second half-transformation.
	Starting AB second half-transformation.
	Starting BB second half-transformation.
	Two-electron integral transformation complete.
	(VV|OV)...
	Starting AA second half-transformation.
	Starting AB second half-transformation.
	Starting BB second half-transformation.
	Two-electron integral transformation complete.
	(VV|VV)...
	Starting AA second half-transformation.
	Starting AB second half-transformation.
	Starting BB second half-transformation.
	Two-electron integral transformation complete.
	Frozen core energy     =  -1525.82868287477686

	Size of irrep 0 of <AB|CD> integrals:     29.387 (MW) /    235.098 (MB)
	Size of irrep 1 of <AB|CD> integrals:     22.392 (MW) /    179.135 (MB)
	Total:                                    51.779 (MW) /    414.233 (MB)

	Size of irrep 0 of <ab|cd> integrals:     29.954 (MW) /    239.630 (MB)
	Size of irrep 1 of <ab|cd> integrals:     23.261 (MW) /    186.091 (MB)
	Total:                                    53.215 (MW) /    425.720 (MB)

	Size of irrep 0 of <Ab|Cd> integrals:    121.815 (MW) /    974.523 (MB)
	Size of irrep 1 of <Ab|Cd> integrals:     91.298 (MW) /    730.384 (MB)
	Total:                                   213.113 (MW) /   1704.907 (MB)

	Size of irrep 0 of <IA|BC> integrals:      6.141 (MW) /     49.125 (MB)
	Size of irrep 1 of <IA|BC> integrals:      4.183 (MW) /     33.465 (MB)
	Total:                                    10.324 (MW) /     82.590 (MB)

	Size of irrep 0 of <ia|bc> integrals:      5.634 (MW) /     45.070 (MB)
	Size of irrep 1 of <ia|bc> integrals:      3.434 (MW) /     27.472 (MB)
	Total:                                     9.068 (MW) /     72.542 (MB)

	Size of irrep 0 of <Ia|Bc> integrals:      6.192 (MW) /     49.534 (MB)
	Size of irrep 1 of <Ia|Bc> integrals:      4.271 (MW) /     34.169 (MB)
	Total:                                    10.463 (MW) /     83.703 (MB)

	Size of irrep 0 of <iA|bC> integrals:      5.596 (MW) /     44.766 (MB)
	Size of irrep 1 of <iA|bC> integrals:      3.354 (MW) /     26.830 (MB)
	Total:                                     8.950 (MW) /     71.597 (MB)

	Size of irrep 0 of tIjAb amplitudes:       0.298 (MW) /      2.384 (MB)
	Size of irrep 1 of tIjAb amplitudes:       0.143 (MW) /      1.147 (MB)
	Total:                                     0.441 (MW) /      3.531 (MB)

	Nuclear Rep. energy          =    162.39264004735639
	SCF energy                   =  -1394.31053225830101
	One-electron energy          =    -55.38193348286066
	Two-electron (AA) energy     =      6.02038071477149
	Two-electron (BB) energy     =      4.29573521980768
	Two-electron (AB) energy     =     14.19132811738534
	Two-electron energy          =     24.50744405196452
	Reference energy             =  -1394.31053225831647

*** tstop() called on c4-21.compute.lan at Fri Mar  5 14:23:35 2021
Module time:
	user time   =     252.51 seconds =       4.21 minutes
	system time =      31.60 seconds =       0.53 minutes
	total time  =        115 seconds =       1.92 minutes
Total time:
	user time   =     606.60 seconds =      10.11 minutes
	system time =      40.10 seconds =       0.67 minutes
	total time  =        283 seconds =       4.72 minutes
            **************************
            *                        *
            *        CCENERGY        *
            *                        *
            **************************

    Nuclear Rep. energy (wfn)     =  162.392640047356394
    SCF energy          (wfn)     = -1394.310532258301009
    Reference energy    (file100) = -1394.310532258316471

    Input parameters:
    -----------------
    Wave function   =     CCSD_T
    Reference wfn   =     UHF
    Brueckner       =     No
    Memory (Mbytes) =     46000.0
    Maxiter         =     50
    R_Convergence   =     1.0e-10
    E_Convergence   =     1.0e-10
    Restart         =     Yes
    DIIS            =     Yes
    AO Basis        =     NONE
    ABCD            =     NEW
    Cache Level     =     2
    Cache Type      =     LRU
    Print Level     =     1
    Num. of threads =     12
    # Amps to Print =     10
    Print MP2 Amps? =     No
    Analyze T2 Amps =     No
    Print Pair Ener =     No
    Local CC        =     No
    SCS-MP2         =     False
    SCSN-MP2        =     False
    SCS-CCSD        =     False

MP2 correlation energy -0.3461990872133445
                Solving CC Amplitude Equations
                ------------------------------
  Iter             Energy              RMS        T1Diag      D1Diag    New D1Diag    D2Diag
  ----     ---------------------    ---------   ----------  ----------  ----------   --------
     0        -0.346199087213345    0.000e+00    0.000000    0.000000    0.000000    0.000000
     1        -0.359224357921706    8.518e-02    0.016614    0.000000    0.000000    0.000000
     2        -0.370176183317133    2.703e-02    0.019204    0.000000    0.000000    0.000000
     3        -0.372511558493208    1.300e-02    0.022976    0.000000    0.000000    0.000000
     4        -0.372388892291721    3.549e-03    0.024101    0.000000    0.000000    0.000000
     5        -0.372354519148228    1.390e-03    0.024391    0.000000    0.000000    0.000000
     6        -0.372347380655438    6.091e-04    0.024475    0.000000    0.000000    0.000000
     7        -0.372343876863813    3.182e-04    0.024502    0.000000    0.000000    0.000000
     8        -0.372345542140081    1.762e-04    0.024506    0.000000    0.000000    0.000000
     9        -0.372349208585869    1.039e-04    0.024508    0.000000    0.000000    0.000000
    10        -0.372347452784715    5.770e-05    0.024510    0.000000    0.000000    0.000000
    11        -0.372347430837328    2.505e-05    0.024510    0.000000    0.000000    0.000000
    12        -0.372347014167672    1.235e-05    0.024510    0.000000    0.000000    0.000000
    13        -0.372346848953156    6.397e-06    0.024510    0.000000    0.000000    0.000000
    14        -0.372346879180806    3.675e-06    0.024510    0.000000    0.000000    0.000000
    15        -0.372346890420106    2.339e-06    0.024510    0.000000    0.000000    0.000000
    16        -0.372346890775561    1.277e-06    0.024510    0.000000    0.000000    0.000000

      * MP2 total energy                      = -1394.656731345529806
      * CCSD total energy                     = -1394.682879153364865
      * CCSD(T) total energy                     = -1394.705498458873308
*** Psi4 exiting successfully. Buy a developer a beer!
