                               Psi4 1.3.2 release

  ==> Input File <==

--------------------------------------------------------------------------
memory 46 GB

basis jerome {
assign pot
assign S aug-cc-pV(T+d)Z

[pot]
spherical
****
 K  0
 S 23 1.00
    2.709796E+07     4.136110E-07
    3.592856E+06     3.860330E-06
    7.222638E+05     2.394640E-05
    1.833976E+05     1.157540E-04
    5.464812E+04     4.697010E-04
    1.830913E+04     1.673720E-03
    6.712501E+03     5.370450E-03
    2.643719E+03     1.572510E-02
    1.103835E+03     4.193360E-02
    4.836777E+02     9.987620E-02
    2.206245E+02     2.019680E-01
    1.041117E+02     3.146270E-01
    5.052749E+01     3.107540E-01
    2.485247E+01     1.421920E-01
    1.128102E+01     1.658490E-02
    5.510166E+00    -2.759760E-04
    2.706914E+00     5.158310E-04
    1.122807E+00    -2.268950E-04
    5.236385E-01     6.652980E-05
    2.355180E-01    -3.685150E-05
    4.157977E-02     1.925250E-05
    2.555456E-02    -2.108420E-05
    1.471495E-02     7.044600E-06
 S 23 1.00
    2.709796E+07    -1.188290E-07
    3.592856E+06    -1.108550E-06
    7.222638E+05    -6.881230E-06
    1.833976E+05    -3.324150E-05
    5.464812E+04    -1.350850E-04
    1.830913E+04    -4.814570E-04
    6.712501E+03    -1.552620E-03
    2.643719E+03    -4.578330E-03
    1.103835E+03    -1.247930E-02
    4.836777E+02    -3.094650E-02
    2.206245E+02    -6.855530E-02
    1.041117E+02    -1.268300E-01
    5.052749E+01    -1.745020E-01
    2.485247E+01    -9.089560E-02
    1.128102E+01     2.506960E-01
    5.510166E+00     5.589630E-01
    2.706914E+00     3.284370E-01
    1.122807E+00     3.392170E-02
    5.236385E-01    -2.100280E-03
    2.355180E-01     1.383960E-03
    4.157977E-02    -5.315630E-04
    2.555456E-02     5.770310E-04
    1.471495E-02    -1.931440E-04
 S 23 1.00
    2.709796E+07     3.917470E-08
    3.592856E+06     3.650640E-07
    7.222638E+05     2.269460E-06
    1.833976E+05     1.094290E-05
    5.464812E+04     4.457360E-05
    1.830913E+04     1.584480E-04
    6.712501E+03     5.128440E-04
    2.643719E+03     1.507690E-03
    1.103835E+03     4.136940E-03
    4.836777E+02     1.024690E-02
    2.206245E+02     2.306520E-02
    1.041117E+02     4.308900E-02
    5.052749E+01     6.238120E-02
    2.485247E+01     3.270420E-02
    1.128102E+01    -1.021980E-01
    5.510166E+00    -3.317970E-01
    2.706914E+00    -3.030100E-01
    1.122807E+00     3.098410E-01
    5.236385E-01     6.732700E-01
    2.355180E-01     2.812200E-01
    4.157977E-02     9.376240E-03
    2.555456E-02    -6.955720E-03
    1.471495E-02     2.069460E-03
 S 23 1.00
    2.709796E+07    -7.564440E-09
    3.592856E+06    -7.055390E-08
    7.222638E+05    -4.380820E-07
    1.833976E+05    -2.115540E-06
    5.464812E+04    -8.601300E-06
    1.830913E+04    -3.064440E-05
    6.712501E+03    -9.892550E-05
    2.643719E+03    -2.917760E-04
    1.103835E+03    -7.977860E-04
    4.836777E+02    -1.985820E-03
    2.206245E+02    -4.449740E-03
    1.041117E+02    -8.390260E-03
    5.052749E+01    -1.206000E-02
    2.485247E+01    -6.568410E-03
    1.128102E+01     2.061430E-02
    5.510166E+00     6.770060E-02
    2.706914E+00     6.639570E-02
    1.122807E+00    -8.237770E-02
    5.236385E-01    -1.727150E-01
    2.355180E-01    -2.310290E-01
    4.157977E-02     5.090040E-01
    2.555456E-02     3.472180E-01
    1.471495E-02     2.809620E-01
 S 1 1.00
    2.555456E-02     1.000000E+00
 S 1 1.00
    1.471495E-02     1.000000E+00
 S 1 1.00
    8.470000E-03     1.000000E+00
 P 16 1.00
    9.533309E+03     4.212010E-05
    1.852081E+03     5.068300E-04
    5.464251E+02     3.311700E-03
    1.966947E+02     1.536840E-02
    7.964112E+01     5.457060E-02
    3.488324E+01     1.473880E-01
    1.604479E+01     2.879240E-01
    7.575632E+00     3.750810E-01
    3.672548E+00     2.545160E-01
    1.771130E+00     6.059280E-02
    8.515199E-01     2.508370E-03
    4.016017E-01     6.688870E-04
    1.851933E-01    -1.486150E-04
    5.523390E-02     4.936010E-05
    2.431085E-02    -3.513850E-05
    1.080339E-02     1.171450E-05
 P 16 1.00
    9.533309E+03    -1.280760E-05
    1.852081E+03    -1.547870E-04
    5.464251E+02    -1.010940E-03
    1.966947E+02    -4.738330E-03
    7.964112E+01    -1.703260E-02
    3.488324E+01    -4.754130E-02
    1.604479E+01    -9.560810E-02
    7.575632E+00    -1.337000E-01
    3.672548E+00    -7.425060E-02
    1.771130E+00     1.646810E-01
    8.515199E-01     4.057630E-01
    4.016017E-01     4.113600E-01
    1.851933E-01     1.734240E-01
    5.523390E-02     1.253640E-02
    2.431085E-02    -3.267140E-03
    1.080339E-02     1.039680E-03
 P 16 1.00
    9.533309E+03     1.764010E-06
    1.852081E+03     2.124880E-05
    5.464251E+02     1.392500E-04
    1.966947E+02     6.509140E-04
    7.964112E+01     2.349940E-03
    3.488324E+01     6.547470E-03
    1.604479E+01     1.326270E-02
    7.575632E+00     1.848520E-02
    3.672548E+00     1.025530E-02
    1.771130E+00    -2.652150E-02
    8.515199E-01    -6.086460E-02
    4.016017E-01    -7.474220E-02
    1.851933E-01    -4.870880E-02
    5.523390E-02     2.245720E-01
    2.431085E-02     5.839280E-01
    1.080339E-02     2.980960E-01
 P 1 1.00
    5.523390E-02     1.000000E+00
 P 1 1.00
    1.080339E-02     1.000000E+00
 P 1 1.00
    4.800000E-03     1.000000E+00
 D 6 1.00
    5.670903E+00     8.285900E-03
    1.459042E+00     2.332530E-02
    5.431827E-01     4.878080E-02
    1.346875E-01     7.349020E-02
    5.516013E-02     2.387630E-01
    1.501876E-02     8.253200E-01
 D 1 1.00
    5.516013E-02     1.000000E+00
 D 1 1.00
    1.501876E-02     1.000000E+00
 D 1 1.00
    6.010000E-03     1.000000E+00
 F 1 1.00
    8.493750E-02     1.000000E+00
 F 1 1.00
    3.398000E-02     1.000000E+00
 ****
}

molecule  {
0 2
S    0.000000000000    0.000000000000    0.486656784110
S    0.000000000000    0.000000000000    2.501434347269
K    0.000000000000    0.000000000000   -2.451908992831
}
set {
basis jerome
reference uhf
g_convergence gau_verytight
e_convergence 10
scf_type pk
freeze_core true
geom_maxiter 100
}

set ccenergy {
e_convergence 10
r_convergence 10
}

e = energy('ccsd(t)')

print_out('Stephenergy {}'.format(e))

--------------------------------------------------------------------------

    Molecular point group: c2v

    Geometry (in Angstrom), charge = 0, multiplicity = 2:

       Center              X                  Y                   Z               Mass
    ------------   -----------------  -----------------  -----------------  -----------------
         S            0.000000000000     0.000000000000     0.486656784110    31.972071174400
         S            0.000000000000     0.000000000000     2.501434347269    31.972071174400
         K            0.000000000000     0.000000000000    -2.451908992831    38.963706486400

  Charge       = 0
  Multiplicity = 2
  Basis Set: JEROME
    Blend: AUG-CC-PV(T+D)Z + POT

    Orbital Energies [Eh]
    ---------------------

    Alpha Occupied:

       1A1  -133.573214     2A1   -91.907602     3A1   -91.876554
       4A1   -14.529667     1B2   -11.559674     1B1   -11.559613
       5A1   -11.559525     6A1    -8.905647     7A1    -8.876368
       2B2    -6.598117     8A1    -6.583800     2B1    -6.581810
       3B2    -6.561243     9A1    -6.556715     3B1    -6.555480
      10A1    -1.788216     4B2    -0.996666    11A1    -0.996613
       4B1    -0.996160    12A1    -0.950583    13A1    -0.740258
       5B2    -0.413002    14A1    -0.410152     5B1    -0.374392
       6B2    -0.276522     6B1    -0.239149

    Alpha Virtual:

      15A1    -0.025390     7B2     0.000202     7B1     0.000454
      16A1     0.003562    17A1     0.014379     1A2     0.016330
      18A1     0.016344     8B2     0.017598     8B1     0.017922
       9B2     0.022316     9B1     0.022785    19A1     0.026561
      20A1     0.030652     2A2     0.048213    21A1     0.048218
      10B2     0.057895    10B1     0.058911    22A1     0.061354
      11B2     0.069011    11B1     0.069733    23A1     0.080155
      24A1     0.091654    25A1     0.107466    12B2     0.116978
      12B1     0.118430    13B2     0.122974    13B1     0.122975
      26A1     0.128557     3A2     0.128602    27A1     0.131740
       4A2     0.146381    28A1     0.146401    14B2     0.157303
      14B1     0.161981    29A1     0.167965    15B2     0.183073
      15B1     0.187051    30A1     0.197695    31A1     0.221407
      16B2     0.221537    16B1     0.223517    17B2     0.231179
      17B1     0.234725    32A1     0.277387    33A1     0.306744
      34A1     0.315117     5A2     0.317878    35A1     0.323840
      18B2     0.358537    18B1     0.365092     6A2     0.367668
      36A1     0.367836    19B2     0.375968    19B1     0.375969
       7A2     0.378884    37A1     0.378884    20B2     0.396705
      20B1     0.399969    38A1     0.400186    39A1     0.438894
       8A2     0.452303    40A1     0.452734    21B2     0.455685
      41A1     0.455745    21B1     0.465949    42A1     0.533936
      22B2     0.539091    22B1     0.551608    23B2     0.649907
      23B1     0.666490    43A1     0.717954    24B2     0.733203
      24B1     0.746875    44A1     0.755075     9A2     0.758509
      45A1     0.775178    25B2     0.841013    10A2     0.855084
      46A1     0.855101    25B1     0.861791    47A1     0.871111
      26B2     0.874887    26B1     0.874902    27B2     0.938380
      27B1     0.952611    48A1     0.965384    11A2     0.968653
      49A1     0.969615    28B2     1.017561    28B1     1.017572
      50A1     1.041381    51A1     1.176172    29B2     1.188574
      29B1     1.204046    52A1     1.220506    12A2     1.221660
      53A1     1.269344    30B2     1.380765    30B1     1.397706
      54A1     1.521561    55A1     1.724443    13A2     2.001225
      56A1     2.001939    57A1     2.090042    14A2     2.090076
      31B2     2.136341    58A1     2.136872    31B1     2.155613
      32B2     2.226871    32B1     2.248880    33B2     2.308447
      59A1     2.308994    33B1     2.328335    15A2     2.386969
      60A1     2.387502    34B2     2.411204    34B1     2.411342
      35B2     2.477702    35B1     2.478038    36B2     2.478422
      36B1     2.502222    61A1     2.503971    37B2     2.604983
      62A1     2.613000    16A2     2.613733    37B1     2.624557
      63A1     2.755090    64A1     2.865471    38B2     2.928987
      38B1     2.950702    65A1     4.064494    66A1     5.004716
      67A1     5.793429    68A1     7.396532    17A2     7.396694
      69A1     7.450362    18A2     7.450379    39B2     7.477067
      39B1     7.492988    40B2     7.553535    40B1     7.561708
      70A1     7.616614    71A1     7.668815

    Beta Occupied:

       1A1  -133.573226     2A1   -91.899958     3A1   -91.874012
       4A1   -14.529684     1B2   -11.559634     1B1   -11.559628
       5A1   -11.559574     6A1    -8.897312     7A1    -8.873592
       8A1    -6.579523     2B1    -6.577220     2B2    -6.564532
       9A1    -6.556133     3B1    -6.553856     3B2    -6.549545
      10A1    -1.788246     4B2    -0.996400     4B1    -0.996225
      11A1    -0.996100    12A1    -0.912388    13A1    -0.675600
      14A1    -0.394084     5B1    -0.365576     5B2    -0.298208
       6B1    -0.227268

    Beta Virtual:

      15A1    -0.025279     6B2     0.000153     7B1     0.000456
      16A1     0.003615    17A1     0.014380     1A2     0.016331
      18A1     0.016345     7B2     0.017434     8B1     0.017925
       8B2     0.022355     9B1     0.022785    19A1     0.026702
      20A1     0.030686     2A2     0.048242    21A1     0.048244
       9B2     0.056980    10B1     0.058927    22A1     0.061359
      10B2     0.065367    11B1     0.069742    11B2     0.079594
      23A1     0.080081    24A1     0.092626    25A1     0.108635
      12B1     0.118548    12B2     0.122852    13B1     0.122995
      13B2     0.123064    26A1     0.128630     3A2     0.128677
      27A1     0.131884     4A2     0.146781    28A1     0.146788
      14B1     0.162170    14B2     0.162793    29A1     0.167787
      15B1     0.187577    15B2     0.197358    30A1     0.206235
      16B2     0.222704    31A1     0.223088    16B1     0.223508
      17B1     0.234415    17B2     0.238305    32A1     0.277429
      33A1     0.309785    34A1     0.323725     5A2     0.327377
      35A1     0.328013    18B1     0.364735    18B2     0.367174
       6A2     0.372569    36A1     0.372631    19B1     0.376107
      19B2     0.376107     7A2     0.379277    37A1     0.379282
      20B1     0.399743    38A1     0.400684    20B2     0.401387
      39A1     0.443916    40A1     0.457300     8A2     0.460447
      41A1     0.460937    21B1     0.466736    21B2     0.474700
      42A1     0.540263    22B1     0.552689    22B2     0.565083
      23B1     0.668683    23B2     0.672146    43A1     0.722891
      24B1     0.749170    24B2     0.755855    44A1     0.775484
      45A1     0.789376     9A2     0.789731    25B1     0.863229
      25B2     0.873197    46A1     0.878381    10A2     0.880679
      26B1     0.880819    26B2     0.881001    47A1     0.881220
      27B1     0.953069    27B2     0.959667    48A1     0.972337
      11A2     0.979345    49A1     0.979564    28B1     1.027196
      28B2     1.027202    50A1     1.046885    51A1     1.181837
      29B2     1.201538    29B1     1.204452    52A1     1.228578
      12A2     1.228944    53A1     1.273379    30B2     1.397371
      30B1     1.399721    54A1     1.535194    55A1     1.735740
      56A1     2.020573    13A2     2.020613    57A1     2.101882
      14A2     2.101987    58A1     2.138843    31B2     2.149882
      31B1     2.156881    32B2     2.249775    32B1     2.251175
      59A1     2.313906    33B2     2.325582    33B1     2.330396
      15A2     2.399436    60A1     2.399481    34B1     2.434975
      34B2     2.434978    35B1     2.496109    35B2     2.496112
      36B1     2.506676    61A1     2.507940    36B2     2.512960
      62A1     2.626551    16A2     2.626673    37B2     2.626907
      37B1     2.627601    63A1     2.761291    64A1     2.870113
      38B2     2.948835    38B1     2.952746    65A1     4.067640
      66A1     5.014937    67A1     5.802637    68A1     7.404737
      17A2     7.404814    69A1     7.454258    18A2     7.454271
      39B2     7.484606    39B1     7.494063    40B2     7.557066
      40B1     7.562096    70A1     7.619042    71A1     7.670281

    Final Occupation by Irrep:
             A1    A2    B1    B2
    DOCC [    14,    0,    6,    5 ]
    SOCC [     0,    0,    0,    1 ]

  @UHF Final Energy: -1394.29575955288055

   => Energetics <=

    Nuclear Repulsion Energy =            154.4592548623570565
    One-Electron Energy =               -2234.1857652690214309
    Two-Electron Energy =                 685.4307508537840476
    Total Energy =                      -1394.2957595528805541

  UHF NO Occupations:
  HONO-2 :   14 A1 1.9957402
  HONO-1 :    5 B2 1.9922185
  HONO-0 :    6 B2 1.0000000
  LUNO+0 :    7 B2 0.0077815
  LUNO+1 :   15 A1 0.0042598
  LUNO+2 :   16 A1 0.0009136
  LUNO+3 :    7 B1 0.0003811

Computation Completed

Properties will be evaluated at   0.000000,   0.000000,   0.000000 [a0]

Properties computed using the SCF density matrix

  Nuclear Dipole Moment: [e a0]
     X:     0.0000      Y:     0.0000      Z:     2.3115

  Electronic Dipole Moment: [e a0]
     X:     0.0000      Y:     0.0000      Z:    -7.8531

  Dipole Moment: [e a0]
     X:     0.0000      Y:     0.0000      Z:    -5.5416     Total:     5.5416

  Dipole Moment: [D]
     X:     0.0000      Y:     0.0000      Z:   -14.0853     Total:    14.0853

*** tstop() called on d3-18.compute.lan at Fri Mar  5 15:22:12 2021
Module time:
	user time   =     262.70 seconds =       4.38 minutes
	system time =       5.54 seconds =       0.09 minutes
	total time  =         68 seconds =       1.13 minutes
Total time:
	user time   =     262.70 seconds =       4.38 minutes
	system time =       5.54 seconds =       0.09 minutes
	total time  =         68 seconds =       1.13 minutes
 MINTS: Wrapper to libmints.
   by Justin Turney

   Calculation information:
      Number of threads:                12
      Number of atoms:                   3
      Number of AO shells:              53
      Number of SO shells:              53
      Number of primitives:            287
      Number of atomic orbitals:       199
      Number of basis functions:       169

      Number of irreps:                  4
      Integral cutoff                 0.00e+00
      Number of functions per irrep: [  71   18   40   40 ]

 OEINTS: Overlap, kinetic, potential, dipole, and quadrupole integrals
         stored in file 35.

      Computing two-electron integrals...done
      Computed 23779614 non-zero two-electron integrals.
        Stored in file 33.

*** tstart() called on d3-18.compute.lan
*** at Fri Mar  5 15:24:18 2021

	Wfn Parameters:
	--------------------
	Wavefunction         = CCSD_T
	Number of irreps     = 4
	Number of MOs        = 169
	Number of active MOs = 150
	AO-Basis             = NONE
	Semicanonical        = false
	Reference            = UHF
	Print Level          = 1

	IRREP	# MOs	# FZDC	# DOCC	# SOCC	# VIRT	# FZVR
	-----	-----	------	------	------	------	------
	 A1	   71	    11	    3	    0	    57	    0
	 A2	   18	    0	    0	    0	    18	    0
	 B1	   40	    4	    2	    0	    34	    0
	 B2	   40	    4	    1	    1	    34	    0
	Transforming integrals...
	IWL integrals will be deleted.
	(OO|OO)...
	Presorting SO-basis two-electron integrals.
	Sorting File: SO Ints (nn|nn) nbuckets = 1
	Transforming the one-electron integrals and constructing Fock matrices
	Starting AA/AB first half-transformation.
	Sorting AA/AB half-transformed integrals.
	Starting BB first half-transformation.
	Sorting BB half-transformed integrals.
	First half integral transformation complete.
	Starting AA second half-transformation.
	Starting AB second half-transformation.
	Starting BB second half-transformation.
	Two-electron integral transformation complete.
	(OO|OV)...
	Starting AA second half-transformation.
	Starting AB second half-transformation.
	Starting BB second half-transformation.
	Two-electron integral transformation complete.
	(OO|VV)...
	Starting AA second half-transformation.
	Starting AB second half-transformation.
	Starting BB second half-transformation.
	Two-electron integral transformation complete.
	(OV|OO)...
	Starting AA/AB first half-transformation.
	Sorting AA/AB half-transformed integrals.
	Starting BB first half-transformation.
	Sorting BB half-transformed integrals.
	First half integral transformation complete.
	Starting AA second half-transformation.
	Starting AB second half-transformation.
	Starting BB second half-transformation.
	Two-electron integral transformation complete.
	(OV|OV)...
	Starting AA second half-transformation.
	Starting AB second half-transformation.
	Starting BB second half-transformation.
	Two-electron integral transformation complete.
	(OV|VV)...
	Starting AA second half-transformation.
	Starting AB second half-transformation.
	Starting BB second half-transformation.
	Two-electron integral transformation complete.
	(VV|OO)...
	Starting AA/AB first half-transformation.
	Sorting AA/AB half-transformed integrals.
	Starting BB first half-transformation.
	Sorting BB half-transformed integrals.
	First half integral transformation complete.
	Starting AA second half-transformation.
	Starting AB second half-transformation.
	Starting BB second half-transformation.
	Two-electron integral transformation complete.
	(VV|OV)...
	Starting AA second half-transformation.
	Starting AB second half-transformation.
	Starting BB second half-transformation.
	Two-electron integral transformation complete.
	(VV|VV)...
	Starting AA second half-transformation.
	Starting AB second half-transformation.
	Starting BB second half-transformation.
	Two-electron integral transformation complete.
	Frozen core energy     =  -1517.48660406975364

	Size of irrep 0 of <AB|CD> integrals:      8.243 (MW) /     65.941 (MB)
	Size of irrep 1 of <AB|CD> integrals:      4.761 (MW) /     38.089 (MB)
	Size of irrep 2 of <AB|CD> integrals:      6.503 (MW) /     52.020 (MB)
	Size of irrep 3 of <AB|CD> integrals:      6.503 (MW) /     52.020 (MB)
	Total:                                    26.009 (MW) /    208.070 (MB)

	Size of irrep 0 of <ab|cd> integrals:      8.439 (MW) /     67.512 (MB)
	Size of irrep 1 of <ab|cd> integrals:      4.911 (MW) /     39.285 (MB)
	Size of irrep 2 of <ab|cd> integrals:      6.595 (MW) /     52.757 (MB)
	Size of irrep 3 of <ab|cd> integrals:      6.796 (MW) /     54.372 (MB)
	Total:                                    26.741 (MW) /    213.926 (MB)

	Size of irrep 0 of <Ab|Cd> integrals:     35.035 (MW) /    280.276 (MB)
	Size of irrep 1 of <Ab|Cd> integrals:     19.342 (MW) /    154.739 (MB)
	Size of irrep 2 of <Ab|Cd> integrals:     26.194 (MW) /    209.551 (MB)
	Size of irrep 3 of <Ab|Cd> integrals:     26.595 (MW) /    212.757 (MB)
	Total:                                   107.166 (MW) /    857.324 (MB)

	Size of irrep 0 of <IA|BC> integrals:      1.807 (MW) /     14.454 (MB)
	Size of irrep 1 of <IA|BC> integrals:      0.829 (MW) /      6.633 (MB)
	Size of irrep 2 of <IA|BC> integrals:      1.285 (MW) /     10.282 (MB)
	Size of irrep 3 of <IA|BC> integrals:      1.285 (MW) /     10.282 (MB)
	Total:                                     5.206 (MW) /     41.650 (MB)

	Size of irrep 0 of <ia|bc> integrals:      1.631 (MW) /     13.051 (MB)
	Size of irrep 1 of <ia|bc> integrals:      0.700 (MW) /      5.602 (MB)
	Size of irrep 2 of <ia|bc> integrals:      1.202 (MW) /      9.615 (MB)
	Size of irrep 3 of <ia|bc> integrals:      1.032 (MW) /      8.259 (MB)
	Total:                                     4.566 (MW) /     36.527 (MB)

	Size of irrep 0 of <Ia|Bc> integrals:      1.829 (MW) /     14.632 (MB)
	Size of irrep 1 of <Ia|Bc> integrals:      0.844 (MW) /      6.755 (MB)
	Size of irrep 2 of <Ia|Bc> integrals:      1.290 (MW) /     10.318 (MB)
	Size of irrep 3 of <Ia|Bc> integrals:      1.315 (MW) /     10.520 (MB)
	Total:                                     5.278 (MW) /     42.225 (MB)

	Size of irrep 0 of <iA|bC> integrals:      1.616 (MW) /     12.927 (MB)
	Size of irrep 1 of <iA|bC> integrals:      0.686 (MW) /      5.489 (MB)
	Size of irrep 2 of <iA|bC> integrals:      1.198 (MW) /      9.581 (MB)
	Size of irrep 3 of <iA|bC> integrals:      1.006 (MW) /      8.045 (MB)
	Total:                                     4.505 (MW) /     36.042 (MB)

	Size of irrep 0 of tIjAb amplitudes:       0.089 (MW) /      0.710 (MB)
	Size of irrep 1 of tIjAb amplitudes:       0.026 (MW) /      0.211 (MB)
	Size of irrep 2 of tIjAb amplitudes:       0.061 (MW) /      0.491 (MB)
	Size of irrep 3 of tIjAb amplitudes:       0.046 (MW) /      0.371 (MB)
	Total:                                     0.223 (MW) /      1.784 (MB)

	Nuclear Rep. energy          =    154.45925486235706
	SCF energy                   =  -1394.29575955288055
	One-electron energy          =    -56.25963816260407
	Two-electron (AA) energy     =      6.13777142410133
	Two-electron (BB) energy     =      4.38891732034797
	Two-electron (AB) energy     =     14.46453907266308
	Two-electron energy          =     24.99122781711237
	Reference energy             =  -1394.29575955288828

*** tstop() called on d3-18.compute.lan at Fri Mar  5 15:25:07 2021
Module time:
	user time   =     361.93 seconds =       6.03 minutes
	system time =      21.08 seconds =       0.35 minutes
	total time  =         49 seconds =       0.82 minutes
Total time:
	user time   =     753.26 seconds =      12.55 minutes
	system time =      27.65 seconds =       0.46 minutes
	total time  =        243 seconds =       4.05 minutes
            **************************
            *                        *
            *        CCENERGY        *
            *                        *
            **************************

    Nuclear Rep. energy (wfn)     =  154.459254862357056
    SCF energy          (wfn)     = -1394.295759552880554
    Reference energy    (file100) = -1394.295759552888285

    Input parameters:
    -----------------
    Wave function   =     CCSD_T
    Reference wfn   =     UHF
    Brueckner       =     No
    Memory (Mbytes) =     46000.0
    Maxiter         =     50
    R_Convergence   =     1.0e-10
    E_Convergence   =     1.0e-10
    Restart         =     Yes
    DIIS            =     Yes
    AO Basis        =     NONE
    ABCD            =     NEW
    Cache Level     =     2
    Cache Type      =     LRU
    Print Level     =     1
    Num. of threads =     12
    # Amps to Print =     10
    Print MP2 Amps? =     No
    Analyze T2 Amps =     No
    Print Pair Ener =     No
    Local CC        =     No
    SCS-MP2         =     False
    SCSN-MP2        =     False
    SCS-CCSD        =     False

MP2 correlation energy -0.3404813686669867
                Solving CC Amplitude Equations
                ------------------------------
  Iter             Energy              RMS        T1Diag      D1Diag    New D1Diag    D2Diag

      * MP2 total energy                      = -1394.636240921555327
      * CCSD total energy                     = -1394.665562445755768
      * CCSD(T) total energy                     = -1394.686971745945812
*** Psi4 exiting successfully. Buy a developer a beer!
