                               Psi4 1.4a2.dev191

  ==> Input File <==

--------------------------------------------------------------------------
memory 10 GB

molecule  {
0 3
S
S 1 r1
r1 = 2.0
}

set {
reference uks
basis aug-cc-pvtz
g_convergence gau_verytight
dft_spherical_points 590
dft_radial_points 99
}

optimize('wb97m-v')
frequencies('wb97m-v')

--------------------------------------------------------------------------

    Molecular point group: d2h
  Charge       = 0
  Multiplicity = 3
  Basis Set: AUG-CC-PVTZ
    Blend: AUG-CC-PVTZ
  Basis Set: (AUG-CC-PVTZ AUX)
    Blend: AUG-CC-PVTZ-JKFIT
  @DF-UKS Final Energy:  -796.35474789317232
    Total Energy =                       -796.3547478931723163
    Molecular point group: d2h
  Basis Set: AUG-CC-PVTZ
    Blend: AUG-CC-PVTZ
  Basis Set: (AUG-CC-PVTZ AUX)
    Blend: AUG-CC-PVTZ-JKFIT
  @DF-UKS Final Energy:  -796.35467891676126
    Total Energy =                       -796.3546789167610314
  Basis Set: AUG-CC-PVTZ
    Blend: AUG-CC-PVTZ
  Basis Set: (AUG-CC-PVTZ AUX)
    Blend: AUG-CC-PVTZ-JKFIT
  @DF-UKS Final Energy:  -796.35481654597254
    Total Energy =                       -796.3548165459725396
  Basis Set: AUG-CC-PVTZ
    Blend: AUG-CC-PVTZ
  Basis Set: (AUG-CC-PVTZ AUX)
    Blend: AUG-CC-PVTZ-JKFIT
  @DF-UKS Final Energy:  -796.36042154828249
    Total Energy =                       -796.3604215482823747
  @DF-UKS Final Energy:  -796.36040199808758
    Total Energy =                       -796.3604019980874682
  @DF-UKS Final Energy:  -796.36044061428481
    Total Energy =                       -796.3604406142849257
  @DF-UKS Final Energy:  -796.36076064872736
    Total Energy =                       -796.3607606487273642
  @DF-UKS Final Energy:  -796.36076625364922
    Total Energy =                       -796.3607662536492171
  @DF-UKS Final Energy:  -796.36075448216320
    Total Energy =                       -796.3607544821630881
  @DF-UKS Final Energy:  -796.36078942957784
    Total Energy =                       -796.3607894295777214
  @DF-UKS Final Energy:  -796.36078756639859
    Total Energy =                       -796.3607875663984714
  @DF-UKS Final Energy:  -796.36079075438420
    Total Energy =                       -796.3607907543843112
  @DF-UKS Final Energy:  -796.36079177060003
    Total Energy =                       -796.3607917706000308
  @DF-UKS Final Energy:  -796.36079159490328
    Total Energy =                       -796.3607915949032758
  @DF-UKS Final Energy:  -796.36079140244328
    Total Energy =                       -796.3607914024432830
  @DF-UKS Final Energy:  -796.36079177822580
    Total Energy =                       -796.3607917782258028
  @DF-UKS Final Energy:  -796.36079150970204
    Total Energy =                       -796.3607915097020395
  @DF-UKS Final Energy:  -796.36079150537375
    Total Energy =                       -796.3607915053737543
  @DF-UKS Final Energy:  -796.36079177854742
    Total Energy =                       -796.3607917785471955
  @DF-UKS Final Energy:  -796.36079150588841
    Total Energy =                       -796.3607915058883009
  @DF-UKS Final Energy:  -796.36079150742398
    Total Energy =                       -796.3607915074238690
  **** Optimization is complete! (in 7 steps) ****
    Final optimized geometry and variables:
  @DF-UKS Final Energy:  -796.36079177854708
    Total Energy =                       -796.3607917785469681
  @DF-UKS Final Energy:  -796.36079150588853
    Total Energy =                       -796.3607915058884146
  Basis Set: AUG-CC-PVTZ
    Blend: AUG-CC-PVTZ
  Basis Set: (AUG-CC-PVTZ AUX)
    Blend: AUG-CC-PVTZ-JKFIT
  @DF-UKS Final Energy:  -796.36079150742421
    Total Energy =                       -796.3607915074240964
  Basis Set: AUG-CC-PVTZ
    Blend: AUG-CC-PVTZ
  Basis Set: (AUG-CC-PVTZ AUX)
    Blend: AUG-CC-PVTZ-JKFIT
  @DF-UKS Final Energy:  -796.36079177854731
    Total Energy =                       -796.3607917785473091
  Multiplicity = 3
  Basis Set: AUG-CC-PVTZ
    Blend: AUG-CC-PVTZ
  Basis Set: (AUG-CC-PVTZ AUX)
    Blend: AUG-CC-PVTZ-JKFIT
  @DF-UKS Final Energy:  -796.36079150588796
    Total Energy =                       -796.3607915058880735
    Molecular point group: d2h

    Geometry (in Angstrom), charge = 0, multiplicity = 3:

       Center              X                  Y                   Z               Mass
    ------------   -----------------  -----------------  -----------------  -----------------
         S            0.000000000000     0.000000000000    -0.946149248729    31.972071174400
         S            0.000000000000     0.000000000000     0.946149248729    31.972071174400

  Charge       = 0
  Multiplicity = 3
  Basis Set: AUG-CC-PVTZ
    Blend: AUG-CC-PVTZ
  Basis Set: (AUG-CC-PVTZ AUX)
    Blend: AUG-CC-PVTZ-JKFIT

    Orbital Energies [Eh]
    ---------------------

    Alpha Occupied:

       1B1u  -89.261624     1Ag   -89.261622     2Ag    -8.172856
       2B1u   -8.172694     1B2u   -6.081979     1B3u   -6.081979
       1B3g   -6.081933     1B2g   -6.081933     3Ag    -6.080435
       3B1u   -6.079693     4Ag    -0.962109     4B1u   -0.746100
       5Ag    -0.495551     2B2u   -0.479608     2B3u   -0.479608
       2B3g   -0.333015     2B2g   -0.333015

    Alpha Virtual:

       5B1u    0.028651     6Ag     0.065428     3B2u    0.066976
       3B3u    0.066976     7Ag     0.082989     3B3g    0.095370
       3B2g    0.095370     6B1u    0.099332     8Ag     0.183703
       1B1g    0.183703     7B1u    0.196075     4B2u    0.235096
       4B3u    0.235096     9Ag     0.270760     1Au     0.293090
       8B1u    0.293091     4B2g    0.357692     4B3g    0.357692
       9B1u    0.360646     5B2u    0.448262     5B3u    0.448262
       6B2u    0.542332     6B3u    0.542332    10Ag     0.544073
      10B1u    0.547654    11Ag     0.555653    12Ag     0.560654
       2B1g    0.560655     5B2g    0.566807     5B3g    0.566807
       2Au     0.651205    11B1u    0.651208    13Ag     0.670297
       7B2u    0.700154     7B3u    0.700154     6B2g    0.744556
       6B3g    0.744556     3B1g    0.779251    14Ag     0.779258
       7B2g    0.851982     7B3g    0.851982    12B1u    0.869708
       8B2u    1.018424     8B3u    1.018424    13B1u    1.049594
       3Au     1.049601    14B1u    1.091120     8B2g    1.211055
       8B3g    1.211055    15Ag     1.292702    15B1u    1.408780
       4B1g    1.739368    16Ag     1.739374     9B2u    1.787000
       9B3u    1.787000    16B1u    1.798079     4Au     1.817153
      17B1u    1.817158     9B2g    1.910746     9B3g    1.910746
      17Ag     1.912460     5B1g    1.999240    18Ag     1.999244
      19Ag     2.016239    10B3u    2.021194    10B2u    2.021194
      11B3u    2.065689    11B2u    2.065689    12B3u    2.069097
      12B2u    2.069097    10B2g    2.139928    10B3g    2.139928
      18B1u    2.306672     5Au     2.306673    11B2g    2.348834
      11B3g    2.348834    19B1u    2.457178    12B2g    2.647686
      12B3g    2.647686    20Ag     2.679851    20B1u    3.631316
      21Ag     4.646469    21B1u    5.394934

    Beta Occupied:

       1B1u  -89.255393     1Ag   -89.255393     2Ag    -8.166654
       2B1u   -8.166420     3Ag    -6.076563     3B1u   -6.075821
       1B2u   -6.068566     1B3u   -6.068566     1B3g   -6.068506
       1B2g   -6.068506     4Ag    -0.936504     4B1u   -0.690427
       5Ag    -0.469824     2B2u   -0.423475     2B3u   -0.423475

    Beta Virtual:

       2B2g   -0.062204     2B3g   -0.062204     5B1u    0.029269
       6Ag     0.064060     3B2u    0.066200     3B3u    0.066200
       7Ag     0.085632     3B3g    0.096327     3B2g    0.096327
       6B1u    0.114422     8Ag     0.191323     1B1g    0.191324
       7B1u    0.197249     4B3u    0.253178     4B2u    0.253178
       9Ag     0.274745     1Au     0.299981     8B1u    0.299982
       4B2g    0.359524     4B3g    0.359524     9B1u    0.363194
       5B2u    0.458300     5B3u    0.458300    10Ag     0.547091
      10B1u    0.555875    11Ag     0.561772     6B3u    0.562542
       6B2u    0.562542     5B2g    0.572044     5B3g    0.572044
      12Ag     0.579286     2B1g    0.579287    13Ag     0.686287
       2Au     0.686550    11B1u    0.686554     7B2u    0.705293
       7B3u    0.705293     6B2g    0.766089     6B3g    0.766089
       3B1g    0.791702    14Ag     0.791709     7B2g    0.858465
       7B3g    0.858465    12B1u    0.885137     8B2u    1.025113
       8B3u    1.025113    13B1u    1.055522     3Au     1.055528
      14B1u    1.097751     8B2g    1.224786     8B3g    1.224786
      15Ag     1.323640    15B1u    1.436982     4B1g    1.793972
      16Ag     1.793982     9B3u    1.803409     9B2u    1.803409
      16B1u    1.816860     4Au     1.871793    17B1u    1.871801
      17Ag     1.922981     9B2g    1.959391     9B3g    1.959391
       5B1g    2.027992    18Ag     2.027997    19Ag     2.033059
      10B2u    2.053338    10B3u    2.053338    11B3u    2.117230
      11B2u    2.117230    12B3u    2.119678    12B2u    2.119678
      10B2g    2.190125    10B3g    2.190125    18B1u    2.340546
       5Au     2.340546    11B2g    2.380198    11B3g    2.380198
      19B1u    2.478936    12B2g    2.678679    12B3g    2.678679
      20Ag     2.697034    20B1u    3.641544    21Ag     4.672777
      21B1u    5.417378

    Final Occupation by Irrep:
             Ag   B1g   B2g   B3g    Au   B1u   B2u   B3u
    DOCC [     5,    0,    1,    1,    0,    4,    2,    2 ]
    SOCC [     0,    0,    1,    1,    0,    0,    0,    0 ]

  @DF-UKS Final Energy:  -796.36079150742353

   => Energetics <=

    Nuclear Repulsion Energy =             71.5898501814353381
    One-Electron Energy =               -1241.7336059514582303
    Two-Electron Energy =                 413.2206830282399892
    DFT Exchange-Correlation Energy =     -39.5712971412164336
    Empirical Dispersion Energy =           0.0000000000000000
    VV10 Nonlocal Energy =                  0.1335783755757367
    Total Energy =                       -796.3607915074234143

  UHF NO Occupations:
  HONO-2 :    2B3u 1.9980996
  HONO-1 :    2B3g 1.0000000
  HONO-0 :    2B2g 1.0000000
  LUNO+0 :    3B3u 0.0019004
  LUNO+1 :    3B2u 0.0019004
  LUNO+2 :    5B1u 0.0002590
  LUNO+3 :    6 Ag 0.0002033

Computation Completed

Properties will be evaluated at   0.000000,   0.000000,   0.000000 [a0]

Properties computed using the SCF density matrix

  Nuclear Dipole Moment: [e a0]
     X:     0.0000      Y:     0.0000      Z:     0.0000

  Electronic Dipole Moment: [e a0]
     X:     0.0000      Y:     0.0000      Z:     0.0000

  Dipole Moment: [e a0]
     X:     0.0000      Y:     0.0000      Z:     0.0000     Total:     0.0000

  Dipole Moment: [D]
     X:     0.0000      Y:     0.0000      Z:     0.0000     Total:     0.0000

*** tstop() called on d5-15.compute.lan at Wed Feb  3 17:29:49 2021
Module time:
	user time   =      64.92 seconds =       1.08 minutes
	system time =       0.06 seconds =       0.00 minutes
	total time  =         65 seconds =       1.08 minutes
Total time:
	user time   =    1160.09 seconds =      19.33 minutes
	system time =       1.51 seconds =       0.03 minutes
	total time  =       1162 seconds =      19.37 minutes

         ----------------------------------------------------------
                                   FINDIF
                     R. A. King and Jonathon Misiewicz
         ---------------------------------------------------------

  Computing second-derivative from energies using projected,
  symmetry-adapted, cartesian coordinates.

  3 energies passed in, including the reference geometry.
    Using 3-point formula.
    Energy without displacement: -796.3607917785
    Check energies below for precision!
    0: -1 :      -796.3607915059
    0: 1  :      -796.3607915074

-------------------------------------------------------------

  ==> Harmonic Vibrational Analysis <==

  non-mass-weighted Hessian:       Symmetric? True   Hermitian? True   Lin Dep Dim?  5 (0)
  projection of translations (True) and rotations (True) removed 5 degrees of freedom (5)
  total projector:                 Symmetric? True   Hermitian? True   Lin Dep Dim?  5 (5)
  mass-weighted Hessian:           Symmetric? True   Hermitian? True   Lin Dep Dim?  5 (0)
  pre-proj  low-frequency mode:    0.0000  [cm^-1]
  pre-proj  low-frequency mode:    0.0000  [cm^-1]
  pre-proj  low-frequency mode:    0.0000  [cm^-1]
  pre-proj  low-frequency mode:    0.0000  [cm^-1]
  pre-proj  low-frequency mode:    0.0000  [cm^-1]
  pre-proj  all modes:['0.0000' '0.0000' '0.0000' '0.0000' '0.0000' '758.1361']
  projected mass-weighted Hessian: Symmetric? True   Hermitian? True   Lin Dep Dim?  5 (5)
  post-proj low-frequency mode:    0.0000i [cm^-1] (TR)
  post-proj low-frequency mode:    0.0000  [cm^-1] (TR)
  post-proj low-frequency mode:    0.0000  [cm^-1] (TR)
  post-proj low-frequency mode:    0.0000  [cm^-1] (TR)
  post-proj low-frequency mode:    0.0000  [cm^-1] (TR)
  post-proj  all modes:['0.0000i' '0.0000' '0.0000' '0.0000' '0.0000' '758.1361']

  Vibration                       6
  Freq [cm^-1]                 758.1361
  Irrep                           Ag
  Reduced mass [u]             31.9721
  Force const [mDyne/A]        10.8272
  Turning point v=0 [a0]        0.0705
  RMS dev v=0 [a0 u^1/2]        0.2818
  Char temp [K]               1090.7891
  ----------------------------------------------------------------------------------
      1   S                0.00  0.00  0.71
      2   S                0.00  0.00 -0.71

  ==> Thermochemistry Components <==

  Entropy, S
    Electronic S            2.183 [cal/(mol K)]        9.134 [J/(mol K)]       0.00347910 [mEh/K] (multiplicity = 3)
    Translational S        38.385 [cal/(mol K)]      160.603 [J/(mol K)]       0.06117054 [mEh/K] (mol. weight = 63.9441 [u], P = 101325.00 [Pa])
    Rotational S           13.640 [cal/(mol K)]       57.069 [J/(mol K)]       0.02173652 [mEh/K] (symmetry no. = 2)
    Vibrational S           0.244 [cal/(mol K)]        1.022 [J/(mol K)]       0.00038915 [mEh/K]
  Total S                  54.452 [cal/(mol K)]      227.829 [J/(mol K)]       0.08677531 [mEh/K]
  Correction S              0.000 [cal/(mol K)]        0.000 [J/(mol K)]       0.00000000 [mEh/K]

  Constant volume heat capacity, Cv
    Electronic Cv           0.000 [cal/(mol K)]        0.000 [J/(mol K)]       0.00000000 [mEh/K]
    Translational Cv        2.981 [cal/(mol K)]       12.472 [J/(mol K)]       0.00475022 [mEh/K]
    Rotational Cv           1.987 [cal/(mol K)]        8.314 [J/(mol K)]       0.00316681 [mEh/K]
    Vibrational Cv          0.722 [cal/(mol K)]        3.022 [J/(mol K)]       0.00115089 [mEh/K]
  Total Cv                  5.690 [cal/(mol K)]       23.808 [J/(mol K)]       0.00906792 [mEh/K]
  Correction Cv             0.000 [cal/(mol K)]        0.000 [J/(mol K)]       0.00000000 [mEh/K]

  Constant pressure heat capacity, Cp
    Electronic Cp           0.000 [cal/(mol K)]        0.000 [J/(mol K)]       0.00000000 [mEh/K]
    Translational Cp        4.968 [cal/(mol K)]       20.786 [J/(mol K)]       0.00791703 [mEh/K]
    Rotational Cp           1.987 [cal/(mol K)]        8.314 [J/(mol K)]       0.00316681 [mEh/K]
    Vibrational Cp          0.722 [cal/(mol K)]        3.022 [J/(mol K)]       0.00115089 [mEh/K]
  Total Cp                  7.677 [cal/(mol K)]       32.122 [J/(mol K)]       0.01223473 [mEh/K]
  Correction Cp             0.000 [cal/(mol K)]        0.000 [J/(mol K)]       0.00000000 [mEh/K]

  ==> Thermochemistry Energy Analysis <==

  Raw electronic energy, E0
  Total E0, Electronic energy at well bottom at 0 [K]                 -796.36079178 [Eh]

  Zero-point energy, ZPE_vib = Sum_i nu_i / 2
    Electronic ZPE          0.000 [kcal/mol]        0.000 [kJ/mol]       0.00000000 [Eh]
    Translational ZPE       0.000 [kcal/mol]        0.000 [kJ/mol]       0.00000000 [Eh]
    Rotational ZPE          0.000 [kcal/mol]        0.000 [kJ/mol]       0.00000000 [Eh]
    Vibrational ZPE         1.084 [kcal/mol]        4.535 [kJ/mol]       0.00172716 [Eh]         379.068 [cm^-1]
  Correction ZPE            1.084 [kcal/mol]        4.535 [kJ/mol]       0.00172716 [Eh]         379.068 [cm^-1]
  Total ZPE, Electronic energy at 0 [K]                               -796.35906462 [Eh]

  Thermal Energy, E (includes ZPE)
    Electronic E            0.000 [kcal/mol]        0.000 [kJ/mol]       0.00000000 [Eh]
    Translational E         0.889 [kcal/mol]        3.718 [kJ/mol]       0.00141628 [Eh]
    Rotational E            0.592 [kcal/mol]        2.479 [kJ/mol]       0.00094418 [Eh]
    Vibrational E           1.141 [kcal/mol]        4.775 [kJ/mol]       0.00181854 [Eh]
  Correction E              2.622 [kcal/mol]       10.972 [kJ/mol]       0.00417900 [Eh]
  Total E, Electronic energy at  298.15 [K]                           -796.35661278 [Eh]

  Enthalpy, H_trans = E_trans + k_B * T
    Electronic H            0.000 [kcal/mol]        0.000 [kJ/mol]       0.00000000 [Eh]
    Translational H         1.481 [kcal/mol]        6.197 [kJ/mol]       0.00236046 [Eh]
    Rotational H            0.592 [kcal/mol]        2.479 [kJ/mol]       0.00094418 [Eh]
    Vibrational H           1.141 [kcal/mol]        4.775 [kJ/mol]       0.00181854 [Eh]
  Correction H              3.215 [kcal/mol]       13.451 [kJ/mol]       0.00512318 [Eh]
  Total H, Enthalpy at  298.15 [K]                                    -796.35566860 [Eh]

  Gibbs free energy, G = H - T * S
    Electronic G           -0.651 [kcal/mol]       -2.723 [kJ/mol]      -0.00103729 [Eh]
    Translational G        -9.963 [kcal/mol]      -41.686 [kJ/mol]      -0.01587754 [Eh]
    Rotational G           -3.474 [kcal/mol]      -14.536 [kJ/mol]      -0.00553656 [Eh]
    Vibrational G           1.068 [kcal/mol]        4.470 [kJ/mol]       0.00170251 [Eh]
  Correction G            -13.020 [kcal/mol]      -54.476 [kJ/mol]      -0.02074888 [Eh]
  Total G, Free enthalpy at  298.15 [K]                               -796.38154065 [Eh]

    Psi4 stopped on: Wednesday, 03 February 2021 05:29PM
    Psi4 wall time for execution: 0:19:22.61

*** Psi4 exiting successfully. Buy a developer a beer!
