                               Psi4 1.3.2 release

  ==> Input File <==

--------------------------------------------------------------------------
memory 46 GB

basis jerome {
assign pot
assign S aug-cc-pV(T+d)Z

[pot]
spherical
****
 K  0
 S 23 1.00
    2.709796E+07     4.136110E-07
    3.592856E+06     3.860330E-06
    7.222638E+05     2.394640E-05
    1.833976E+05     1.157540E-04
    5.464812E+04     4.697010E-04
    1.830913E+04     1.673720E-03
    6.712501E+03     5.370450E-03
    2.643719E+03     1.572510E-02
    1.103835E+03     4.193360E-02
    4.836777E+02     9.987620E-02
    2.206245E+02     2.019680E-01
    1.041117E+02     3.146270E-01
    5.052749E+01     3.107540E-01
    2.485247E+01     1.421920E-01
    1.128102E+01     1.658490E-02
    5.510166E+00    -2.759760E-04
    2.706914E+00     5.158310E-04
    1.122807E+00    -2.268950E-04
    5.236385E-01     6.652980E-05
    2.355180E-01    -3.685150E-05
    4.157977E-02     1.925250E-05
    2.555456E-02    -2.108420E-05
    1.471495E-02     7.044600E-06
 S 23 1.00
    2.709796E+07    -1.188290E-07
    3.592856E+06    -1.108550E-06
    7.222638E+05    -6.881230E-06
    1.833976E+05    -3.324150E-05
    5.464812E+04    -1.350850E-04
    1.830913E+04    -4.814570E-04
    6.712501E+03    -1.552620E-03
    2.643719E+03    -4.578330E-03
    1.103835E+03    -1.247930E-02
    4.836777E+02    -3.094650E-02
    2.206245E+02    -6.855530E-02
    1.041117E+02    -1.268300E-01
    5.052749E+01    -1.745020E-01
    2.485247E+01    -9.089560E-02
    1.128102E+01     2.506960E-01
    5.510166E+00     5.589630E-01
    2.706914E+00     3.284370E-01
    1.122807E+00     3.392170E-02
    5.236385E-01    -2.100280E-03
    2.355180E-01     1.383960E-03
    4.157977E-02    -5.315630E-04
    2.555456E-02     5.770310E-04
    1.471495E-02    -1.931440E-04
 S 23 1.00
    2.709796E+07     3.917470E-08
    3.592856E+06     3.650640E-07
    7.222638E+05     2.269460E-06
    1.833976E+05     1.094290E-05
    5.464812E+04     4.457360E-05
    1.830913E+04     1.584480E-04
    6.712501E+03     5.128440E-04
    2.643719E+03     1.507690E-03
    1.103835E+03     4.136940E-03
    4.836777E+02     1.024690E-02
    2.206245E+02     2.306520E-02
    1.041117E+02     4.308900E-02
    5.052749E+01     6.238120E-02
    2.485247E+01     3.270420E-02
    1.128102E+01    -1.021980E-01
    5.510166E+00    -3.317970E-01
    2.706914E+00    -3.030100E-01
    1.122807E+00     3.098410E-01
    5.236385E-01     6.732700E-01
    2.355180E-01     2.812200E-01
    4.157977E-02     9.376240E-03
    2.555456E-02    -6.955720E-03
    1.471495E-02     2.069460E-03
 S 23 1.00
    2.709796E+07    -7.564440E-09
    3.592856E+06    -7.055390E-08
    7.222638E+05    -4.380820E-07
    1.833976E+05    -2.115540E-06
    5.464812E+04    -8.601300E-06
    1.830913E+04    -3.064440E-05
    6.712501E+03    -9.892550E-05
    2.643719E+03    -2.917760E-04
    1.103835E+03    -7.977860E-04
    4.836777E+02    -1.985820E-03
    2.206245E+02    -4.449740E-03
    1.041117E+02    -8.390260E-03
    5.052749E+01    -1.206000E-02
    2.485247E+01    -6.568410E-03
    1.128102E+01     2.061430E-02
    5.510166E+00     6.770060E-02
    2.706914E+00     6.639570E-02
    1.122807E+00    -8.237770E-02
    5.236385E-01    -1.727150E-01
    2.355180E-01    -2.310290E-01
    4.157977E-02     5.090040E-01
    2.555456E-02     3.472180E-01
    1.471495E-02     2.809620E-01
 S 1 1.00
    2.555456E-02     1.000000E+00
 S 1 1.00
    1.471495E-02     1.000000E+00
 S 1 1.00
    8.470000E-03     1.000000E+00
 P 16 1.00
    9.533309E+03     4.212010E-05
    1.852081E+03     5.068300E-04
    5.464251E+02     3.311700E-03
    1.966947E+02     1.536840E-02
    7.964112E+01     5.457060E-02
    3.488324E+01     1.473880E-01
    1.604479E+01     2.879240E-01
    7.575632E+00     3.750810E-01
    3.672548E+00     2.545160E-01
    1.771130E+00     6.059280E-02
    8.515199E-01     2.508370E-03
    4.016017E-01     6.688870E-04
    1.851933E-01    -1.486150E-04
    5.523390E-02     4.936010E-05
    2.431085E-02    -3.513850E-05
    1.080339E-02     1.171450E-05
 P 16 1.00
    9.533309E+03    -1.280760E-05
    1.852081E+03    -1.547870E-04
    5.464251E+02    -1.010940E-03
    1.966947E+02    -4.738330E-03
    7.964112E+01    -1.703260E-02
    3.488324E+01    -4.754130E-02
    1.604479E+01    -9.560810E-02
    7.575632E+00    -1.337000E-01
    3.672548E+00    -7.425060E-02
    1.771130E+00     1.646810E-01
    8.515199E-01     4.057630E-01
    4.016017E-01     4.113600E-01
    1.851933E-01     1.734240E-01
    5.523390E-02     1.253640E-02
    2.431085E-02    -3.267140E-03
    1.080339E-02     1.039680E-03
 P 16 1.00
    9.533309E+03     1.764010E-06
    1.852081E+03     2.124880E-05
    5.464251E+02     1.392500E-04
    1.966947E+02     6.509140E-04
    7.964112E+01     2.349940E-03
    3.488324E+01     6.547470E-03
    1.604479E+01     1.326270E-02
    7.575632E+00     1.848520E-02
    3.672548E+00     1.025530E-02
    1.771130E+00    -2.652150E-02
    8.515199E-01    -6.086460E-02
    4.016017E-01    -7.474220E-02
    1.851933E-01    -4.870880E-02
    5.523390E-02     2.245720E-01
    2.431085E-02     5.839280E-01
    1.080339E-02     2.980960E-01
 P 1 1.00
    5.523390E-02     1.000000E+00
 P 1 1.00
    1.080339E-02     1.000000E+00
 P 1 1.00
    4.800000E-03     1.000000E+00
 D 6 1.00
    5.670903E+00     8.285900E-03
    1.459042E+00     2.332530E-02
    5.431827E-01     4.878080E-02
    1.346875E-01     7.349020E-02
    5.516013E-02     2.387630E-01
    1.501876E-02     8.253200E-01
 D 1 1.00
    5.516013E-02     1.000000E+00
 D 1 1.00
    1.501876E-02     1.000000E+00
 D 1 1.00
    6.010000E-03     1.000000E+00
 F 1 1.00
    8.493750E-02     1.000000E+00
 F 1 1.00
    3.398000E-02     1.000000E+00
 ****
}

molecule  {
0 2
S   -1.177989063893    1.030086870808    0.000000000000
S   -1.177216426408   -1.029748765747    0.000000000000
K    1.932588153350   -0.000277435595    0.000000000000
}
set {
basis jerome
reference uhf
g_convergence gau_verytight
e_convergence 10
scf_type pk
freeze_core true
geom_maxiter 100
}

set ccenergy {
e_convergence 10
r_convergence 10
}

e = energy('ccsd(t)')

print_out('Stephenergy {}'.format(e))

--------------------------------------------------------------------------

    Molecular point group: cs

    Geometry (in Angstrom), charge = 0, multiplicity = 2:

       Center              X                  Y                   Z               Mass
    ------------   -----------------  -----------------  -----------------  -----------------
         S           -1.177989063893     1.030086870808     0.000000000000    31.972071174400
         S           -1.177216426408    -1.029748765747     0.000000000000    31.972071174400
         K            1.932588153350    -0.000277435595     0.000000000000    38.963706486400

  Charge       = 0
  Multiplicity = 2
  Basis Set: JEROME
    Blend: AUG-CC-PV(T+D)Z + POT

    Orbital Energies [Eh]
    ---------------------

    Alpha Occupied:

       1Ap  -133.556243     2Ap   -91.906583     3Ap   -91.906536
       4Ap   -14.512592     1App  -11.542600     5Ap   -11.542510
       6Ap   -11.542443     7Ap    -8.904412     8Ap    -8.904225
       2App   -6.593389     3App   -6.593331     9Ap    -6.583349
      10Ap    -6.582945    11Ap    -6.581756    12Ap    -6.581707
      13Ap    -1.770879     4App   -0.980061    14Ap    -0.979924
      15Ap    -0.978810    16Ap    -0.948526    17Ap    -0.757033
       5App   -0.416976    18Ap    -0.406223    19Ap    -0.389365
       6App   -0.295521    20Ap    -0.260553

    Alpha Virtual:

      21Ap    -0.019043     7App    0.002444    22Ap     0.002898
      23Ap     0.006003    24Ap     0.016621     8App    0.017221
      25Ap     0.017372     9App    0.020258    26Ap     0.021165
      27Ap     0.022386    10App    0.022812    28Ap     0.028640
      29Ap     0.033256    30Ap     0.051395    11App    0.051537
      31Ap     0.055573    12App    0.059003    32Ap     0.062049
      13App    0.074243    33Ap     0.075123    34Ap     0.088271
      35Ap     0.105539    36Ap     0.109057    37Ap     0.125939
      14App    0.126099    38Ap     0.128690    39Ap     0.129343
      15App    0.129771    16App    0.133420    40Ap     0.133940
      41Ap     0.151016    42Ap     0.153488    17App    0.153532
      18App    0.167033    43Ap     0.170772    44Ap     0.175380
      19App    0.179046    20App    0.187892    45Ap     0.208325
      46Ap     0.208967    47Ap     0.222992    21App    0.234554
      48Ap     0.247390    49Ap     0.269499    50Ap     0.311738
      51Ap     0.314173    22App    0.337339    52Ap     0.351076
      53Ap     0.359230    23App    0.377619    24App    0.383119
      54Ap     0.384821    25App    0.387893    55Ap     0.389808
      56Ap     0.393215    26App    0.396444    57Ap     0.406816
      27App    0.409129    58Ap     0.430330    59Ap     0.432269
      60Ap     0.441050    28App    0.452481    29App    0.455922
      61Ap     0.466461    30App    0.468169    62Ap     0.489891
      63Ap     0.517491    64Ap     0.537764    31App    0.668722
      32App    0.702007    65Ap     0.707350    33App    0.711640
      66Ap     0.729847    67Ap     0.743208    68Ap     0.783684
      34App    0.800021    69Ap     0.816998    70Ap     0.817361
      35App    0.851315    71Ap     0.854502    72Ap     0.870604
      36App    0.893830    73Ap     0.910665    37App    0.915592
      74Ap     0.950317    75Ap     0.951786    76Ap     0.966357
      38App    1.013793    77Ap     1.022211    39App    1.050235
      78Ap     1.057046    79Ap     1.082046    40App    1.164124
      80Ap     1.200317    81Ap     1.202411    41App    1.204291
      82Ap     1.223413    42App    1.364736    83Ap     1.396645
      84Ap     1.467682    85Ap     1.678780    43App    2.031388
      86Ap     2.035828    44App    2.065604    87Ap     2.066003
      45App    2.079441    88Ap     2.096785    89Ap     2.126733
      46App    2.213583    90Ap     2.280413    47App    2.284721
      91Ap     2.294923    92Ap     2.309762    93Ap     2.368262
      48App    2.373726    94Ap     2.412330    49App    2.421184
      95Ap     2.451350    96Ap     2.474377    50App    2.486855
      51App    2.506501    52App    2.568055    97Ap     2.586755
      53App    2.589966    98Ap     2.674745    99Ap     2.684905
     100Ap     2.713885   101Ap     2.749005    54App    2.879024
     102Ap     2.909346   103Ap     4.008442   104Ap     4.980337
     105Ap     5.754170    55App    7.416933   106Ap     7.419541
     107Ap     7.435820    56App    7.436506    57App    7.439250
     108Ap     7.461450    58App    7.512041   109Ap     7.535762
     110Ap     7.603379   111Ap     7.604780

    Beta Occupied:

       1Ap  -133.556267     2Ap   -91.901013     3Ap   -91.900972
       4Ap   -14.512625     1App  -11.542636     5Ap   -11.542547
       6Ap   -11.542475     7Ap    -8.898359     8Ap    -8.898136
       9Ap    -6.580665    10Ap    -6.580247    11Ap    -6.578237
      12Ap    -6.578192     2App   -6.568991     3App   -6.568943
      13Ap    -1.771052     4App   -0.980232    14Ap    -0.978964
      15Ap    -0.978126    16Ap    -0.911784    17Ap    -0.686516
      18Ap    -0.389947    19Ap    -0.380930     5App   -0.293481
      20Ap    -0.247619

    Beta Virtual:

      21Ap    -0.019051     6App    0.002474    22Ap     0.002912
      23Ap     0.005993    24Ap     0.016616     7App    0.017050
      25Ap     0.017373     8App    0.020295    26Ap     0.021185
      27Ap     0.022443     9App    0.022909    28Ap     0.028643
      29Ap     0.033173    10App    0.047276    30Ap     0.051365
      31Ap     0.055840    11App    0.059447    32Ap     0.062019
      12App    0.065677    13App    0.074442    33Ap     0.075329
      34Ap     0.087972    35Ap     0.105321    36Ap     0.110669
      37Ap     0.126152    14App    0.126227    38Ap     0.128671
      15App    0.129714    39Ap     0.130206    40Ap     0.133994
      16App    0.135240    41Ap     0.150826    42Ap     0.153821
      17App    0.165785    18App    0.171577    43Ap     0.172186
      44Ap     0.175041    19App    0.183782    20App    0.188842
      45Ap     0.208299    46Ap     0.214197    47Ap     0.226169
      21App    0.234856    48Ap     0.248088    49Ap     0.268761
      50Ap     0.317181    51Ap     0.318525    52Ap     0.352017
      22App    0.356915    53Ap     0.363769    54Ap     0.385141
      23App    0.386146    24App    0.390176    25App    0.391427
      55Ap     0.393188    56Ap     0.393931    26App    0.398154
      57Ap     0.408969    27App    0.409262    58Ap     0.432287
      59Ap     0.435993    60Ap     0.443765    28App    0.461761
      29App    0.469501    61Ap     0.471966    30App    0.476858
      62Ap     0.490863    63Ap     0.520991    64Ap     0.538624
      31App    0.686724    65Ap     0.715104    66Ap     0.735690
      32App    0.739618    33App    0.742229    67Ap     0.746379
      68Ap     0.794948    34App    0.816838    69Ap     0.817955
      70Ap     0.833091    71Ap     0.866243    35App    0.885817
      72Ap     0.894869    73Ap     0.917334    36App    0.922632
      37App    0.926688    74Ap     0.955483    75Ap     0.963343
      76Ap     0.969370    38App    1.026280    77Ap     1.033193
      78Ap     1.058497    39App    1.060908    79Ap     1.088440
      40App    1.176304    80Ap     1.200088    41App    1.210901
      81Ap     1.212316    82Ap     1.225217    42App    1.381058
      83Ap     1.398708    84Ap     1.480830    85Ap     1.694009
      43App    2.046405    86Ap     2.050501    44App    2.080505
      87Ap     2.080949    45App    2.095301    88Ap     2.098878
      89Ap     2.129060    46App    2.235922    90Ap     2.285304
      91Ap     2.297102    47App    2.301625    92Ap     2.312399
      93Ap     2.381025    48App    2.386263    94Ap     2.424560
      49App    2.453046    95Ap     2.462479    96Ap     2.496667
      50App    2.509706    51App    2.533810    52App    2.591962
      97Ap     2.602986    53App    2.606524    98Ap     2.680104
      99Ap     2.689279   100Ap     2.718410   101Ap     2.754857
      54App    2.900056   102Ap     2.911986   103Ap     4.011844
     104Ap     4.991470   105Ap     5.764474    55App    7.423092
     106Ap     7.425866   107Ap     7.442311    56App    7.443003
      57App    7.445280   108Ap     7.462485    58App    7.517980
     109Ap     7.536634   110Ap     7.605229   111Ap     7.606774

    Final Occupation by Irrep:
             Ap   App
    DOCC [    20,    5 ]
    SOCC [     0,    1 ]

  @UHF Final Energy: -1394.31590283974151

   => Energetics <=

    Nuclear Repulsion Energy =            163.9698002499512199
    One-Electron Energy =               -2253.1839561403426160
    Two-Electron Energy =                 694.8982530506498279
    Total Energy =                      -1394.3159028397415113

  UHF NO Occupations:
  HONO-2 :   20 Ap 1.9974800
  HONO-1 :    5App 1.9871809
  HONO-0 :    6App 1.0000000
  LUNO+0 :    7App 0.0128191
  LUNO+1 :   21 Ap 0.0025200
  LUNO+2 :   22 Ap 0.0022715
  LUNO+3 :   23 Ap 0.0003064

Computation Completed

Properties will be evaluated at   0.000000,   0.000000,   0.000000 [a0]

Properties computed using the SCF density matrix

  Nuclear Dipole Moment: [e a0]
     X:    -1.8219      Y:     0.0003      Z:     0.0000

  Electronic Dipole Moment: [e a0]
     X:     6.5112      Y:    -0.0004      Z:     0.0000

  Dipole Moment: [e a0]
     X:     4.6893      Y:    -0.0001      Z:     0.0000     Total:     4.6893

  Dipole Moment: [D]
     X:    11.9189      Y:    -0.0002      Z:     0.0000     Total:    11.9189

*** tstop() called on d2-13.compute.lan at Fri Mar  5 14:30:00 2021
Module time:
	user time   =     266.25 seconds =       4.44 minutes
	system time =       3.46 seconds =       0.06 minutes
	total time  =         66 seconds =       1.10 minutes
Total time:
	user time   =     266.25 seconds =       4.44 minutes
	system time =       3.46 seconds =       0.06 minutes
	total time  =         66 seconds =       1.10 minutes
 MINTS: Wrapper to libmints.
   by Justin Turney

   Calculation information:
      Number of threads:                12
      Number of atoms:                   3
      Number of AO shells:              53
      Number of SO shells:              53
      Number of primitives:            287
      Number of atomic orbitals:       199
      Number of basis functions:       169

      Number of irreps:                  2
      Integral cutoff                 0.00e+00
      Number of functions per irrep: [ 111   58 ]

 OEINTS: Overlap, kinetic, potential, dipole, and quadrupole integrals
         stored in file 35.

      Computing two-electron integrals...done
      Computed 50993604 non-zero two-electron integrals.
        Stored in file 33.

*** tstart() called on d2-13.compute.lan
*** at Fri Mar  5 14:32:07 2021

	Wfn Parameters:
	--------------------
	Wavefunction         = CCSD_T
	Number of irreps     = 2
	Number of MOs        = 169
	Number of active MOs = 150
	AO-Basis             = NONE
	Semicanonical        = false
	Reference            = UHF
	Print Level          = 1

	IRREP	# MOs	# FZDC	# DOCC	# SOCC	# VIRT	# FZVR
	-----	-----	------	------	------	------	------
	 Ap	   111	    15	    5	    0	    91	    0
	 App	   58	    4	    1	    1	    52	    0
	Transforming integrals...
	IWL integrals will be deleted.
	(OO|OO)...
	Presorting SO-basis two-electron integrals.
	Sorting File: SO Ints (nn|nn) nbuckets = 1
	Transforming the one-electron integrals and constructing Fock matrices
	Starting AA/AB first half-transformation.
	Sorting AA/AB half-transformed integrals.
	Starting BB first half-transformation.
	Sorting BB half-transformed integrals.
	First half integral transformation complete.
	Starting AA second half-transformation.
	Starting AB second half-transformation.
	Starting BB second half-transformation.
	Two-electron integral transformation complete.
	(OO|OV)...
	Starting AA second half-transformation.
	Starting AB second half-transformation.
	Starting BB second half-transformation.
	Two-electron integral transformation complete.
	(OO|VV)...
	Starting AA second half-transformation.
	Starting AB second half-transformation.
	Starting BB second half-transformation.
	Two-electron integral transformation complete.
	(OV|OO)...
	Starting AA/AB first half-transformation.
	Sorting AA/AB half-transformed integrals.
	Starting BB first half-transformation.
	Sorting BB half-transformed integrals.
	First half integral transformation complete.
	Starting AA second half-transformation.
	Starting AB second half-transformation.
	Starting BB second half-transformation.
	Two-electron integral transformation complete.
	(OV|OV)...
	Starting AA second half-transformation.
	Starting AB second half-transformation.
	Starting BB second half-transformation.
	Two-electron integral transformation complete.
	(OV|VV)...
	Starting AA second half-transformation.
	Starting AB second half-transformation.
	Starting BB second half-transformation.
	Two-electron integral transformation complete.
	(VV|OO)...
	Starting AA/AB first half-transformation.
	Sorting AA/AB half-transformed integrals.
	Starting BB first half-transformation.
	Sorting BB half-transformed integrals.
	First half integral transformation complete.
	Starting AA second half-transformation.
	Starting AB second half-transformation.
	Starting BB second half-transformation.
	Two-electron integral transformation complete.
	(VV|OV)...
	Starting AA second half-transformation.
	Starting AB second half-transformation.
	Starting BB second half-transformation.
	Two-electron integral transformation complete.
	(VV|VV)...
	Starting AA second half-transformation.
	Starting AB second half-transformation.
	Starting BB second half-transformation.
	Two-electron integral transformation complete.
	Frozen core energy     =  -1527.20110420698529

	Size of irrep 0 of <AB|CD> integrals:     29.387 (MW) /    235.098 (MB)
	Size of irrep 1 of <AB|CD> integrals:     22.392 (MW) /    179.135 (MB)
	Total:                                    51.779 (MW) /    414.233 (MB)

	Size of irrep 0 of <ab|cd> integrals:     29.954 (MW) /    239.630 (MB)
	Size of irrep 1 of <ab|cd> integrals:     23.261 (MW) /    186.091 (MB)
	Total:                                    53.215 (MW) /    425.720 (MB)

	Size of irrep 0 of <Ab|Cd> integrals:    121.815 (MW) /    974.523 (MB)
	Size of irrep 1 of <Ab|Cd> integrals:     91.298 (MW) /    730.384 (MB)
	Total:                                   213.113 (MW) /   1704.907 (MB)

	Size of irrep 0 of <IA|BC> integrals:      6.141 (MW) /     49.125 (MB)
	Size of irrep 1 of <IA|BC> integrals:      4.183 (MW) /     33.465 (MB)
	Total:                                    10.324 (MW) /     82.590 (MB)

	Size of irrep 0 of <ia|bc> integrals:      5.634 (MW) /     45.070 (MB)
	Size of irrep 1 of <ia|bc> integrals:      3.434 (MW) /     27.472 (MB)
	Total:                                     9.068 (MW) /     72.542 (MB)

	Size of irrep 0 of <Ia|Bc> integrals:      6.192 (MW) /     49.534 (MB)
	Size of irrep 1 of <Ia|Bc> integrals:      4.271 (MW) /     34.169 (MB)
	Total:                                    10.463 (MW) /     83.703 (MB)

	Size of irrep 0 of <iA|bC> integrals:      5.596 (MW) /     44.766 (MB)
	Size of irrep 1 of <iA|bC> integrals:      3.354 (MW) /     26.830 (MB)
	Total:                                     8.950 (MW) /     71.597 (MB)

	Size of irrep 0 of tIjAb amplitudes:       0.298 (MW) /      2.384 (MB)
	Size of irrep 1 of tIjAb amplitudes:       0.143 (MW) /      1.147 (MB)
	Total:                                     0.441 (MW) /      3.531 (MB)

	Nuclear Rep. energy          =    163.96980024995122
	SCF energy                   =  -1394.31590283974151
	One-electron energy          =    -55.78472567837105
	Two-electron (AA) energy     =      6.05449639517719
	Two-electron (BB) energy     =      4.35662925682652
	Two-electron (AB) energy     =     14.28900114364141
	Two-electron energy          =     24.70012679564513
	Reference energy             =  -1394.31590283975993

*** tstop() called on d2-13.compute.lan at Fri Mar  5 14:33:57 2021
Module time:
	user time   =     372.23 seconds =       6.20 minutes
	system time =      31.97 seconds =       0.53 minutes
	total time  =        110 seconds =       1.83 minutes
Total time:
	user time   =     768.10 seconds =      12.80 minutes
	system time =      37.27 seconds =       0.62 minutes
	total time  =        303 seconds =       5.05 minutes
            **************************
            *                        *
            *        CCENERGY        *
            *                        *
            **************************

    Nuclear Rep. energy (wfn)     =  163.969800249951220
    SCF energy          (wfn)     = -1394.315902839741511
    Reference energy    (file100) = -1394.315902839759929

    Input parameters:
    -----------------
    Wave function   =     CCSD_T
    Reference wfn   =     UHF
    Brueckner       =     No
    Memory (Mbytes) =     46000.0
    Maxiter         =     50
    R_Convergence   =     1.0e-10
    E_Convergence   =     1.0e-10
    Restart         =     Yes
    DIIS            =     Yes
    AO Basis        =     NONE
    ABCD            =     NEW
    Cache Level     =     2
    Cache Type      =     LRU
    Print Level     =     1
    Num. of threads =     12
    # Amps to Print =     10
    Print MP2 Amps? =     No
    Analyze T2 Amps =     No
    Print Pair Ener =     No
    Local CC        =     No
    SCS-MP2         =     False
    SCSN-MP2        =     False
    SCS-CCSD        =     False

MP2 correlation energy -0.3426194170831735
                Solving CC Amplitude Equations
                ------------------------------
  Iter             Energy              RMS        T1Diag      D1Diag    New D1Diag    D2Diag
  ----     ---------------------    ---------   ----------  ----------  ----------   --------
     0        -0.342619417083174    0.000e+00    0.000000    0.000000    0.000000    0.000000
     1        -0.355969960462833    8.129e-02    0.015699    0.000000    0.000000    0.000000
     2        -0.366409179260479    2.553e-02    0.018318    0.000000    0.000000    0.000000
     3        -0.368509547377070    1.206e-02    0.021763    0.000000    0.000000    0.000000
     4        -0.368397593971707    3.337e-03    0.022808    0.000000    0.000000    0.000000
     5        -0.368364573882815    1.364e-03    0.023078    0.000000    0.000000    0.000000
     6        -0.368358562130861    5.887e-04    0.023161    0.000000    0.000000    0.000000
     7        -0.368355456572650    2.962e-04    0.023187    0.000000    0.000000    0.000000
     8        -0.368356556002853    1.590e-04    0.023192    0.000000    0.000000    0.000000
     9        -0.368359993961881    8.975e-05    0.023193    0.000000    0.000000    0.000000
    10        -0.368358616730541    4.782e-05    0.023194    0.000000    0.000000    0.000000
    11        -0.368358453408632    2.076e-05    0.023194    0.000000    0.000000    0.000000
    12        -0.368358111301254    1.005e-05    0.023194    0.000000    0.000000    0.000000
    13        -0.368357949398146    5.015e-06    0.023194    0.000000    0.000000    0.000000
    14        -0.368357946638447    2.738e-06    0.023194    0.000000    0.000000    0.000000
    15        -0.368357951276405    1.698e-06    0.023194    0.000000    0.000000    0.000000
    16        -0.368357951585676    9.350e-07    0.023194    0.000000    0.000000    0.000000

      * MP2 total energy                      = -1394.658522256843071
      * CCSD total energy                     = -1394.684260795158480
      * CCSD(T) total energy                     = -1394.706034724753408
*** Psi4 exiting successfully. Buy a developer a beer!
