                               Psi4 1.3.2 release

  ==> Input File <==

--------------------------------------------------------------------------
memory 46 GB

basis jerome {
assign pot
assign S aug-cc-pV(T+d)Z

[pot]
spherical
****
 K  0
 S 23 1.00
    2.709796E+07     4.136110E-07
    3.592856E+06     3.860330E-06
    7.222638E+05     2.394640E-05
    1.833976E+05     1.157540E-04
    5.464812E+04     4.697010E-04
    1.830913E+04     1.673720E-03
    6.712501E+03     5.370450E-03
    2.643719E+03     1.572510E-02
    1.103835E+03     4.193360E-02
    4.836777E+02     9.987620E-02
    2.206245E+02     2.019680E-01
    1.041117E+02     3.146270E-01
    5.052749E+01     3.107540E-01
    2.485247E+01     1.421920E-01
    1.128102E+01     1.658490E-02
    5.510166E+00    -2.759760E-04
    2.706914E+00     5.158310E-04
    1.122807E+00    -2.268950E-04
    5.236385E-01     6.652980E-05
    2.355180E-01    -3.685150E-05
    4.157977E-02     1.925250E-05
    2.555456E-02    -2.108420E-05
    1.471495E-02     7.044600E-06
 S 23 1.00
    2.709796E+07    -1.188290E-07
    3.592856E+06    -1.108550E-06
    7.222638E+05    -6.881230E-06
    1.833976E+05    -3.324150E-05
    5.464812E+04    -1.350850E-04
    1.830913E+04    -4.814570E-04
    6.712501E+03    -1.552620E-03
    2.643719E+03    -4.578330E-03
    1.103835E+03    -1.247930E-02
    4.836777E+02    -3.094650E-02
    2.206245E+02    -6.855530E-02
    1.041117E+02    -1.268300E-01
    5.052749E+01    -1.745020E-01
    2.485247E+01    -9.089560E-02
    1.128102E+01     2.506960E-01
    5.510166E+00     5.589630E-01
    2.706914E+00     3.284370E-01
    1.122807E+00     3.392170E-02
    5.236385E-01    -2.100280E-03
    2.355180E-01     1.383960E-03
    4.157977E-02    -5.315630E-04
    2.555456E-02     5.770310E-04
    1.471495E-02    -1.931440E-04
 S 23 1.00
    2.709796E+07     3.917470E-08
    3.592856E+06     3.650640E-07
    7.222638E+05     2.269460E-06
    1.833976E+05     1.094290E-05
    5.464812E+04     4.457360E-05
    1.830913E+04     1.584480E-04
    6.712501E+03     5.128440E-04
    2.643719E+03     1.507690E-03
    1.103835E+03     4.136940E-03
    4.836777E+02     1.024690E-02
    2.206245E+02     2.306520E-02
    1.041117E+02     4.308900E-02
    5.052749E+01     6.238120E-02
    2.485247E+01     3.270420E-02
    1.128102E+01    -1.021980E-01
    5.510166E+00    -3.317970E-01
    2.706914E+00    -3.030100E-01
    1.122807E+00     3.098410E-01
    5.236385E-01     6.732700E-01
    2.355180E-01     2.812200E-01
    4.157977E-02     9.376240E-03
    2.555456E-02    -6.955720E-03
    1.471495E-02     2.069460E-03
 S 23 1.00
    2.709796E+07    -7.564440E-09
    3.592856E+06    -7.055390E-08
    7.222638E+05    -4.380820E-07
    1.833976E+05    -2.115540E-06
    5.464812E+04    -8.601300E-06
    1.830913E+04    -3.064440E-05
    6.712501E+03    -9.892550E-05
    2.643719E+03    -2.917760E-04
    1.103835E+03    -7.977860E-04
    4.836777E+02    -1.985820E-03
    2.206245E+02    -4.449740E-03
    1.041117E+02    -8.390260E-03
    5.052749E+01    -1.206000E-02
    2.485247E+01    -6.568410E-03
    1.128102E+01     2.061430E-02
    5.510166E+00     6.770060E-02
    2.706914E+00     6.639570E-02
    1.122807E+00    -8.237770E-02
    5.236385E-01    -1.727150E-01
    2.355180E-01    -2.310290E-01
    4.157977E-02     5.090040E-01
    2.555456E-02     3.472180E-01
    1.471495E-02     2.809620E-01
 S 1 1.00
    2.555456E-02     1.000000E+00
 S 1 1.00
    1.471495E-02     1.000000E+00
 S 1 1.00
    8.470000E-03     1.000000E+00
 P 16 1.00
    9.533309E+03     4.212010E-05
    1.852081E+03     5.068300E-04
    5.464251E+02     3.311700E-03
    1.966947E+02     1.536840E-02
    7.964112E+01     5.457060E-02
    3.488324E+01     1.473880E-01
    1.604479E+01     2.879240E-01
    7.575632E+00     3.750810E-01
    3.672548E+00     2.545160E-01
    1.771130E+00     6.059280E-02
    8.515199E-01     2.508370E-03
    4.016017E-01     6.688870E-04
    1.851933E-01    -1.486150E-04
    5.523390E-02     4.936010E-05
    2.431085E-02    -3.513850E-05
    1.080339E-02     1.171450E-05
 P 16 1.00
    9.533309E+03    -1.280760E-05
    1.852081E+03    -1.547870E-04
    5.464251E+02    -1.010940E-03
    1.966947E+02    -4.738330E-03
    7.964112E+01    -1.703260E-02
    3.488324E+01    -4.754130E-02
    1.604479E+01    -9.560810E-02
    7.575632E+00    -1.337000E-01
    3.672548E+00    -7.425060E-02
    1.771130E+00     1.646810E-01
    8.515199E-01     4.057630E-01
    4.016017E-01     4.113600E-01
    1.851933E-01     1.734240E-01
    5.523390E-02     1.253640E-02
    2.431085E-02    -3.267140E-03
    1.080339E-02     1.039680E-03
 P 16 1.00
    9.533309E+03     1.764010E-06
    1.852081E+03     2.124880E-05
    5.464251E+02     1.392500E-04
    1.966947E+02     6.509140E-04
    7.964112E+01     2.349940E-03
    3.488324E+01     6.547470E-03
    1.604479E+01     1.326270E-02
    7.575632E+00     1.848520E-02
    3.672548E+00     1.025530E-02
    1.771130E+00    -2.652150E-02
    8.515199E-01    -6.086460E-02
    4.016017E-01    -7.474220E-02
    1.851933E-01    -4.870880E-02
    5.523390E-02     2.245720E-01
    2.431085E-02     5.839280E-01
    1.080339E-02     2.980960E-01
 P 1 1.00
    5.523390E-02     1.000000E+00
 P 1 1.00
    1.080339E-02     1.000000E+00
 P 1 1.00
    4.800000E-03     1.000000E+00
 D 6 1.00
    5.670903E+00     8.285900E-03
    1.459042E+00     2.332530E-02
    5.431827E-01     4.878080E-02
    1.346875E-01     7.349020E-02
    5.516013E-02     2.387630E-01
    1.501876E-02     8.253200E-01
 D 1 1.00
    5.516013E-02     1.000000E+00
 D 1 1.00
    1.501876E-02     1.000000E+00
 D 1 1.00
    6.010000E-03     1.000000E+00
 F 1 1.00
    8.493750E-02     1.000000E+00
 F 1 1.00
    3.398000E-02     1.000000E+00
 ****
}

molecule  {
0 2
S    0.000000000000    0.000000000000    0.487626749709
S    0.000000000000    0.000000000000    2.513796911568
K    0.000000000000    0.000000000000   -2.462849137732
}
set {
basis jerome
reference uhf
g_convergence gau_verytight
e_convergence 10
scf_type pk
freeze_core true
geom_maxiter 100
}

set ccenergy {
e_convergence 10
r_convergence 10
}

e = energy('ccsd(t)')

print_out('Stephenergy {}'.format(e))

--------------------------------------------------------------------------

    Molecular point group: c2v

    Geometry (in Angstrom), charge = 0, multiplicity = 2:

       Center              X                  Y                   Z               Mass
    ------------   -----------------  -----------------  -----------------  -----------------
         S            0.000000000000     0.000000000000     0.487626749709    31.972071174400
         S            0.000000000000     0.000000000000     2.513796911568    31.972071174400
         K            0.000000000000     0.000000000000    -2.462849137732    38.963706486400

  Charge       = 0
  Multiplicity = 2
  Basis Set: JEROME
    Blend: AUG-CC-PV(T+D)Z + POT

    Orbital Energies [Eh]
    ---------------------

    Alpha Occupied:

       1A1  -133.574028     2A1   -91.908867     3A1   -91.876141
       4A1   -14.530447     1B2   -11.560456     1B1   -11.560399
       5A1   -11.560309     6A1    -8.906713     7A1    -8.875747
       2B2    -6.599295     8A1    -6.584823     2B1    -6.582839
       3B2    -6.560507     9A1    -6.556080     3B1    -6.554880
      10A1    -1.788883     4B2    -0.997309    11A1    -0.997001
       4B1    -0.996825    12A1    -0.947830    13A1    -0.740956
       5B2    -0.412059    14A1    -0.408367     5B1    -0.372922
       6B2    -0.276800     6B1    -0.239914

    Alpha Virtual:

      15A1    -0.025589     7B2     0.000144     7B1     0.000391
      16A1     0.003493    17A1     0.014349     1A2     0.016317
      18A1     0.016331     8B2     0.017524     8B1     0.017838
       9B2     0.022328     9B1     0.022797    19A1     0.026499
      20A1     0.030639     2A2     0.048139    21A1     0.048143
      10B2     0.057882    10B1     0.058882    22A1     0.061319
      11B2     0.068907    11B1     0.069609    23A1     0.080443
      24A1     0.091419    25A1     0.107236    12B2     0.116895
      12B1     0.118337    13B2     0.122891    13B1     0.122891
      26A1     0.128537     3A2     0.128579    27A1     0.131624
       4A2     0.146159    28A1     0.146178    14B2     0.157264
      14B1     0.161960    29A1     0.168038    15B2     0.182795
      15B1     0.186711    30A1     0.195540    16B2     0.221502
      31A1     0.221583    16B1     0.223472    17B2     0.230899
      17B1     0.234376    32A1     0.277624    33A1     0.305975
      34A1     0.315306     5A2     0.317906    35A1     0.324518
      18B2     0.358255    18B1     0.364907     6A2     0.367637
      36A1     0.367798    19B2     0.375702    19B1     0.375702
       7A2     0.378353    37A1     0.378354    20B2     0.396807
      38A1     0.399600    20B1     0.399913    39A1     0.438546
       8A2     0.451539    40A1     0.452064    21B2     0.455349
      41A1     0.457591    21B1     0.465626    42A1     0.531176
      22B2     0.538150    22B1     0.550668    23B2     0.650270
      23B1     0.667019    43A1     0.718804    24B2     0.732919
      24B1     0.746420    44A1     0.755349     9A2     0.758771
      45A1     0.775497    25B2     0.839785    10A2     0.855309
      46A1     0.855312    25B1     0.860784    47A1     0.869270
      26B2     0.875456    26B1     0.875472    27B2     0.938229
      27B1     0.952197    48A1     0.964928    11A2     0.966787
      49A1     0.968394    28B2     1.016899    28B1     1.016909
      50A1     1.037348    51A1     1.173446    29B2     1.186172
      29B1     1.201628    52A1     1.218918    12A2     1.220219
      53A1     1.263504    30B2     1.378833    30B1     1.395723
      54A1     1.516735    55A1     1.723522    13A2     2.000547
      56A1     2.001284    14A2     2.089792    57A1     2.089831
      31B2     2.134208    58A1     2.141501    31B1     2.153627
      32B2     2.227581    32B1     2.249594    33B2     2.309713
      59A1     2.309862    33B1     2.329572    15A2     2.389969
      60A1     2.390444    34B2     2.411570    34B1     2.411712
      35B2     2.477526    35B1     2.478061    36B2     2.478336
      36B1     2.501984    61A1     2.504228    37B2     2.599425
      62A1     2.609411    16A2     2.610144    37B1     2.618868
      63A1     2.748708    64A1     2.848064    38B2     2.920774
      38B1     2.942467    65A1     4.056227    66A1     4.989987
      67A1     5.790976    68A1     7.395572    17A2     7.395737
      69A1     7.450589    18A2     7.450609    39B2     7.475480
      39B1     7.491673    40B2     7.552369    40B1     7.560296
      70A1     7.617870    71A1     7.661486

    Beta Occupied:

       1A1  -133.574040     2A1   -91.901150     3A1   -91.873670
       4A1   -14.530465     1B2   -11.560419     1B1   -11.560413
       5A1   -11.560357     6A1    -8.898300     7A1    -8.873049
       8A1    -6.580456     2B1    -6.578211     2B2    -6.565413
       9A1    -6.555578     3B1    -6.553300     3B2    -6.549088
      10A1    -1.788916     4B2    -0.997059     4B1    -0.996888
      11A1    -0.996585    12A1    -0.908859    13A1    -0.676580
      14A1    -0.392584     5B1    -0.363984     5B2    -0.296513
       6B1    -0.228142

    Beta Virtual:

      15A1    -0.025478     6B2     0.000097     7B1     0.000393
      16A1     0.003546    17A1     0.014350     1A2     0.016317
      18A1     0.016331     7B2     0.017363     8B1     0.017841
       8B2     0.022367     9B1     0.022797    19A1     0.026641
      20A1     0.030670     2A2     0.048166    21A1     0.048168
       9B2     0.056980    10B1     0.058897    22A1     0.061323
      10B2     0.065256    11B1     0.069617    11B2     0.079243
      23A1     0.080365    24A1     0.092410    25A1     0.108426
      12B1     0.118453    12B2     0.122724    13B1     0.122910
      13B2     0.122957    26A1     0.128604     3A2     0.128648
      27A1     0.131768     4A2     0.146540    28A1     0.146547
      14B1     0.162157    14B2     0.162870    29A1     0.167892
      15B1     0.187225    15B2     0.197026    30A1     0.204355
      16B2     0.222668    31A1     0.222962    16B1     0.223463
      17B1     0.234062    17B2     0.237787    32A1     0.277663
      33A1     0.308993    34A1     0.324565     5A2     0.327502
      35A1     0.328128    18B1     0.364547    18B2     0.367079
       6A2     0.372432    36A1     0.372491    19B1     0.375834
      19B2     0.375834     7A2     0.378748    37A1     0.378754
      20B1     0.399688    38A1     0.400085    20B2     0.401178
      39A1     0.443624    40A1     0.458612     8A2     0.459629
      41A1     0.460703    21B1     0.466416    21B2     0.474300
      42A1     0.537370    22B1     0.551736    22B2     0.564117
      23B1     0.669258    23B2     0.672974    43A1     0.723793
      24B1     0.748686    24B2     0.755276    44A1     0.775865
      45A1     0.790212     9A2     0.790580    25B1     0.862276
      25B2     0.872417    46A1     0.876648    10A2     0.880454
      47A1     0.880884    26B1     0.881446    26B2     0.881591
      27B1     0.952609    27B2     0.959067    48A1     0.972565
      11A2     0.977446    49A1     0.977673    28B1     1.026461
      28B2     1.026467    50A1     1.042905    51A1     1.179066
      29B2     1.199121    29B1     1.202029    52A1     1.227020
      12A2     1.227431    53A1     1.267364    30B2     1.395343
      30B1     1.397717    54A1     1.530254    55A1     1.734914
      56A1     2.020101    13A2     2.020141    57A1     2.101424
      14A2     2.101516    58A1     2.143488    31B2     2.148096
      31B1     2.154921    32B2     2.250355    32B1     2.251874
      59A1     2.314859    33B2     2.326778    33B1     2.331658
      15A2     2.402636    60A1     2.402671    34B1     2.435728
      34B2     2.435731    35B1     2.495755    35B2     2.495759
      36B1     2.506437    61A1     2.508247    36B2     2.512712
      37B2     2.621314    37B1     2.621897    62A1     2.622845
      16A2     2.622968    63A1     2.754876    64A1     2.852679
      38B2     2.940639    38B1     2.944526    65A1     4.059447
      66A1     5.000192    67A1     5.800195    68A1     7.403888
      17A2     7.403967    69A1     7.454384    18A2     7.454397
      39B2     7.483178    39B1     7.492783    40B2     7.555765
      40B1     7.560653    70A1     7.620518    71A1     7.662710

    Final Occupation by Irrep:
             A1    A2    B1    B2
    DOCC [    14,    0,    6,    5 ]
    SOCC [     0,    0,    0,    1 ]

  @UHF Final Energy: -1394.29520393474149

   => Energetics <=

    Nuclear Repulsion Energy =            153.7081387797229581
    One-Electron Energy =               -2232.6762696415289611
    Two-Electron Energy =                 684.6729269270645091
    Total Energy =                      -1394.2952039347414939

  UHF NO Occupations:
  HONO-2 :   14 A1 1.9956972
  HONO-1 :    5 B2 1.9923885
  HONO-0 :    6 B2 1.0000000
  LUNO+0 :    7 B2 0.0076115
  LUNO+1 :   15 A1 0.0043028
  LUNO+2 :   16 A1 0.0008982
  LUNO+3 :    7 B1 0.0003866

Computation Completed

Properties will be evaluated at   0.000000,   0.000000,   0.000000 [a0]

Properties computed using the SCF density matrix

  Nuclear Dipole Moment: [e a0]
     X:     0.0000      Y:     0.0000      Z:     2.3218

  Electronic Dipole Moment: [e a0]
     X:     0.0000      Y:     0.0000      Z:    -7.8810

  Dipole Moment: [e a0]
     X:     0.0000      Y:     0.0000      Z:    -5.5592     Total:     5.5592

  Dipole Moment: [D]
     X:     0.0000      Y:     0.0000      Z:   -14.1300     Total:    14.1300

*** tstop() called on d3-18.compute.lan at Fri Mar  5 14:53:34 2021
Module time:
	user time   =     260.71 seconds =       4.35 minutes
	system time =       3.28 seconds =       0.05 minutes
	total time  =         66 seconds =       1.10 minutes
Total time:
	user time   =     260.71 seconds =       4.35 minutes
	system time =       3.28 seconds =       0.05 minutes
	total time  =         66 seconds =       1.10 minutes
 MINTS: Wrapper to libmints.
   by Justin Turney

   Calculation information:
      Number of threads:                12
      Number of atoms:                   3
      Number of AO shells:              53
      Number of SO shells:              53
      Number of primitives:            287
      Number of atomic orbitals:       199
      Number of basis functions:       169

      Number of irreps:                  4
      Integral cutoff                 0.00e+00
      Number of functions per irrep: [  71   18   40   40 ]

 OEINTS: Overlap, kinetic, potential, dipole, and quadrupole integrals
         stored in file 35.

      Computing two-electron integrals...done
      Computed 23777553 non-zero two-electron integrals.
        Stored in file 33.

*** tstart() called on d3-18.compute.lan
*** at Fri Mar  5 14:55:43 2021

	Wfn Parameters:
	--------------------
	Wavefunction         = CCSD_T
	Number of irreps     = 4
	Number of MOs        = 169
	Number of active MOs = 150
	AO-Basis             = NONE
	Semicanonical        = false
	Reference            = UHF
	Print Level          = 1

	IRREP	# MOs	# FZDC	# DOCC	# SOCC	# VIRT	# FZVR
	-----	-----	------	------	------	------	------
	 A1	   71	    11	    3	    0	    57	    0
	 A2	   18	    0	    0	    0	    18	    0
	 B1	   40	    4	    2	    0	    34	    0
	 B2	   40	    4	    1	    1	    34	    0
	Transforming integrals...
	IWL integrals will be deleted.
	(OO|OO)...
	Presorting SO-basis two-electron integrals.
	Sorting File: SO Ints (nn|nn) nbuckets = 1
	Transforming the one-electron integrals and constructing Fock matrices
	Starting AA/AB first half-transformation.
	Sorting AA/AB half-transformed integrals.
	Starting BB first half-transformation.
	Sorting BB half-transformed integrals.
	First half integral transformation complete.
	Starting AA second half-transformation.
	Starting AB second half-transformation.
	Starting BB second half-transformation.
	Two-electron integral transformation complete.
	(OO|OV)...
	Starting AA second half-transformation.
	Starting AB second half-transformation.
	Starting BB second half-transformation.
	Two-electron integral transformation complete.
	(OO|VV)...
	Starting AA second half-transformation.
	Starting AB second half-transformation.
	Starting BB second half-transformation.
	Two-electron integral transformation complete.
	(OV|OO)...
	Starting AA/AB first half-transformation.
	Sorting AA/AB half-transformed integrals.
	Starting BB first half-transformation.
	Sorting BB half-transformed integrals.
	First half integral transformation complete.
	Starting AA second half-transformation.
	Starting AB second half-transformation.
	Starting BB second half-transformation.
	Two-electron integral transformation complete.
	(OV|OV)...
	Starting AA second half-transformation.
	Starting AB second half-transformation.
	Starting BB second half-transformation.
	Two-electron integral transformation complete.
	(OV|VV)...
	Starting AA second half-transformation.
	Starting AB second half-transformation.
	Starting BB second half-transformation.
	Two-electron integral transformation complete.
	(VV|OO)...
	Starting AA/AB first half-transformation.
	Sorting AA/AB half-transformed integrals.
	Starting BB first half-transformation.
	Sorting BB half-transformed integrals.
	First half integral transformation complete.
	Starting AA second half-transformation.
	Starting AB second half-transformation.
	Starting BB second half-transformation.
	Two-electron integral transformation complete.
	(VV|OV)...
	Starting AA second half-transformation.
	Starting AB second half-transformation.
	Starting BB second half-transformation.
	Two-electron integral transformation complete.
	(VV|VV)...
	Starting AA second half-transformation.
	Starting AB second half-transformation.
	Starting BB second half-transformation.
	Two-electron integral transformation complete.
	Frozen core energy     =  -1516.78040143682756

	Size of irrep 0 of <AB|CD> integrals:      8.243 (MW) /     65.941 (MB)
	Size of irrep 1 of <AB|CD> integrals:      4.761 (MW) /     38.089 (MB)
	Size of irrep 2 of <AB|CD> integrals:      6.503 (MW) /     52.020 (MB)
	Size of irrep 3 of <AB|CD> integrals:      6.503 (MW) /     52.020 (MB)
	Total:                                    26.009 (MW) /    208.070 (MB)

	Size of irrep 0 of <ab|cd> integrals:      8.439 (MW) /     67.512 (MB)
	Size of irrep 1 of <ab|cd> integrals:      4.911 (MW) /     39.285 (MB)
	Size of irrep 2 of <ab|cd> integrals:      6.595 (MW) /     52.757 (MB)
	Size of irrep 3 of <ab|cd> integrals:      6.796 (MW) /     54.372 (MB)
	Total:                                    26.741 (MW) /    213.926 (MB)

	Size of irrep 0 of <Ab|Cd> integrals:     35.035 (MW) /    280.276 (MB)
	Size of irrep 1 of <Ab|Cd> integrals:     19.342 (MW) /    154.739 (MB)
	Size of irrep 2 of <Ab|Cd> integrals:     26.194 (MW) /    209.551 (MB)
	Size of irrep 3 of <Ab|Cd> integrals:     26.595 (MW) /    212.757 (MB)
	Total:                                   107.166 (MW) /    857.324 (MB)

	Size of irrep 0 of <IA|BC> integrals:      1.807 (MW) /     14.454 (MB)
	Size of irrep 1 of <IA|BC> integrals:      0.829 (MW) /      6.633 (MB)
	Size of irrep 2 of <IA|BC> integrals:      1.285 (MW) /     10.282 (MB)
	Size of irrep 3 of <IA|BC> integrals:      1.285 (MW) /     10.282 (MB)
	Total:                                     5.206 (MW) /     41.650 (MB)

	Size of irrep 0 of <ia|bc> integrals:      1.631 (MW) /     13.051 (MB)
	Size of irrep 1 of <ia|bc> integrals:      0.700 (MW) /      5.602 (MB)
	Size of irrep 2 of <ia|bc> integrals:      1.202 (MW) /      9.615 (MB)
	Size of irrep 3 of <ia|bc> integrals:      1.032 (MW) /      8.259 (MB)
	Total:                                     4.566 (MW) /     36.527 (MB)

	Size of irrep 0 of <Ia|Bc> integrals:      1.829 (MW) /     14.632 (MB)
	Size of irrep 1 of <Ia|Bc> integrals:      0.844 (MW) /      6.755 (MB)
	Size of irrep 2 of <Ia|Bc> integrals:      1.290 (MW) /     10.318 (MB)
	Size of irrep 3 of <Ia|Bc> integrals:      1.315 (MW) /     10.520 (MB)
	Total:                                     5.278 (MW) /     42.225 (MB)

	Size of irrep 0 of <iA|bC> integrals:      1.616 (MW) /     12.927 (MB)
	Size of irrep 1 of <iA|bC> integrals:      0.686 (MW) /      5.489 (MB)
	Size of irrep 2 of <iA|bC> integrals:      1.198 (MW) /      9.581 (MB)
	Size of irrep 3 of <iA|bC> integrals:      1.006 (MW) /      8.045 (MB)
	Total:                                     4.505 (MW) /     36.042 (MB)

	Size of irrep 0 of tIjAb amplitudes:       0.089 (MW) /      0.710 (MB)
	Size of irrep 1 of tIjAb amplitudes:       0.026 (MW) /      0.211 (MB)
	Size of irrep 2 of tIjAb amplitudes:       0.061 (MW) /      0.491 (MB)
	Size of irrep 3 of tIjAb amplitudes:       0.046 (MW) /      0.371 (MB)
	Total:                                     0.223 (MW) /      1.784 (MB)

	Nuclear Rep. energy          =    153.70813877972296
	SCF energy                   =  -1394.29520393474149
	One-electron energy          =    -56.18037346657675
	Two-electron (AA) energy     =      6.13077239798449
	Two-electron (BB) energy     =      4.37973658613593
	Two-electron (AB) energy     =     14.44692320479635
	Two-electron energy          =     24.95743218891678
	Reference energy             =  -1394.29520393476469

*** tstop() called on d3-18.compute.lan at Fri Mar  5 14:56:29 2021
Module time:
	user time   =     349.22 seconds =       5.82 minutes
	system time =      20.40 seconds =       0.34 minutes
	total time  =         46 seconds =       0.77 minutes
Total time:
	user time   =     742.09 seconds =      12.37 minutes
	system time =      24.74 seconds =       0.41 minutes
	total time  =        241 seconds =       4.02 minutes
            **************************
            *                        *
            *        CCENERGY        *
            *                        *
            **************************

    Nuclear Rep. energy (wfn)     =  153.708138779722958
    SCF energy          (wfn)     = -1394.295203934741494
    Reference energy    (file100) = -1394.295203934764686

    Input parameters:
    -----------------
    Wave function   =     CCSD_T
    Reference wfn   =     UHF
    Brueckner       =     No
    Memory (Mbytes) =     46000.0
    Maxiter         =     50
    R_Convergence   =     1.0e-10
    E_Convergence   =     1.0e-10
    Restart         =     Yes
    DIIS            =     Yes
    AO Basis        =     NONE
    ABCD            =     NEW
    Cache Level     =     2
    Cache Type      =     LRU
    Print Level     =     1
    Num. of threads =     12
    # Amps to Print =     10
    Print MP2 Amps? =     No
    Analyze T2 Amps =     No
    Print Pair Ener =     No
    Local CC        =     No
    SCS-MP2         =     False
    SCSN-MP2        =     False
    SCS-CCSD        =     False

MP2 correlation energy -0.3405848310360253
                Solving CC Amplitude Equations
                ------------------------------
  Iter             Energy              RMS        T1Diag      D1Diag    New D1Diag    D2Diag

      * MP2 total energy                      = -1394.635788765800726
      * CCSD total energy                     = -1394.665386777724962
      * CCSD(T) total energy                     = -1394.686889037760011
*** Psi4 exiting successfully. Buy a developer a beer!
