                               Psi4 1.4a2.dev191

  ==> Input File <==

--------------------------------------------------------------------------
memory 16 GB

molecule  {
-2 3
S
S 1 r1
S 1 r2 2 a1
S 2 r3 1 a2 3 d1
r1 = 2.051
r2 = 2.024
r3 = 2.024
a1 = 105.1
a2 = 105.1
d1 = 180.0
}

set {
reference uks
basis aug-cc-pvtz
g_convergence gau_verytight
dft_spherical_points 590
dft_radial_points 99
}

optimize('wb97x-d')
frequencies('wb97x-d')

--------------------------------------------------------------------------

    Molecular point group: c2h
  Charge       = -2
  Multiplicity = 3
  Basis Set: AUG-CC-PVTZ
    Blend: AUG-CC-PVTZ
  Basis Set: (AUG-CC-PVTZ AUX)
    Blend: AUG-CC-PVTZ-JKFIT
  @DF-UKS Final Energy: -1592.75229987452849
    Total Energy =                      -1592.7522998745287168
    Molecular point group: c2h
  Basis Set: AUG-CC-PVTZ
    Blend: AUG-CC-PVTZ
  Basis Set: (AUG-CC-PVTZ AUX)
    Blend: AUG-CC-PVTZ-JKFIT
  Basis Set: AUG-CC-PVTZ
    Blend: AUG-CC-PVTZ
  Basis Set: (AUG-CC-PVTZ AUX)
    Blend: AUG-CC-PVTZ-JKFIT
  @DF-UKS Final Energy: -1592.75574090134614
    Total Energy =                      -1592.7557409013459164
  Basis Set: AUG-CC-PVTZ
    Blend: AUG-CC-PVTZ
  Basis Set: (AUG-CC-PVTZ AUX)
    Blend: AUG-CC-PVTZ-JKFIT
  Basis Set: AUG-CC-PVTZ
    Blend: AUG-CC-PVTZ
  @DF-UKS Final Energy: -1592.77563246515410
    Total Energy =                      -1592.7756324651541036
  @DF-UKS Final Energy: -1592.75502488143502
    Total Energy =                      -1592.7550248814347924
  @DF-UKS Final Energy: -1592.78171275176555
    Total Energy =                      -1592.7817127517653262
  @DF-UKS Final Energy: -1592.78278666840561
    Total Energy =                      -1592.7827866684056062
  @DF-UKS Final Energy: -1592.78396233934200
    Total Energy =                      -1592.7839623393422244
  @DF-UKS Final Energy: -1592.78537333297595
    Total Energy =                      -1592.7853733329761781
  @DF-UKS Final Energy: -1592.78614470216553
    Total Energy =                      -1592.7861447021653021
  @DF-UKS Final Energy: -1592.78646457933723
    Total Energy =                      -1592.7864645793374621
  @DF-UKS Final Energy: -1592.78649051841217
    Total Energy =                      -1592.7864905184119380
  @DF-UKS Final Energy: -1592.78649336475360
    Total Energy =                      -1592.7864933647535963
  @DF-UKS Final Energy: -1592.78649372875202
    Total Energy =                      -1592.7864937287517932
  @DF-UKS Final Energy: -1592.78649373452117
    Total Energy =                      -1592.7864937345211729
  @DF-UKS Final Energy: -1592.78649372844302
    Total Energy =                      -1592.7864937284430198
  @DF-UKS Final Energy: -1592.78649372817517
    Total Energy =                      -1592.7864937281754010
  **** Optimization is complete! (in 16 steps) ****
    Final optimized geometry and variables:
  @DF-UKS Final Energy: -1592.78649372816153
    Total Energy =                      -1592.7864937281617586
  @DF-UKS Final Energy: -1592.78649372816153
    Total Energy =                      -1592.7864937281617586
  @DF-UKS Final Energy: -1592.78649366346076
    Total Energy =                      -1592.7864936634612150
  @DF-UKS Final Energy: -1592.78649367008620
    Total Energy =                      -1592.7864936700859744
  @DF-UKS Final Energy: -1592.78649363015029
    Total Energy =                      -1592.7864936301500620
  @DF-UKS Final Energy: -1592.78649377570218
    Total Energy =                      -1592.7864937757021835
  @DF-UKS Final Energy: -1592.78649365545266
    Total Energy =                      -1592.7864936554526594
  @DF-UKS Final Energy: -1592.78649367927574
    Total Energy =                      -1592.7864936792757362
  @DF-UKS Final Energy: -1592.78649372789300
    Total Energy =                      -1592.7864937278927755
  Basis Set: (AUG-CC-PVTZ AUX)
    Blend: AUG-CC-PVTZ-JKFIT
  Basis Set: AUG-CC-PVTZ
    Blend: AUG-CC-PVTZ
  Basis Set: (AUG-CC-PVTZ AUX)
    Blend: AUG-CC-PVTZ-JKFIT
  @DF-UKS Final Energy: -1592.78649365066576
    Total Energy =                      -1592.7864936506662161
  Basis Set: AUG-CC-PVTZ
    Blend: AUG-CC-PVTZ
  Basis Set: (AUG-CC-PVTZ AUX)
    Blend: AUG-CC-PVTZ-JKFIT
    Molecular point group: cs
  Charge       = -2
  Multiplicity = 3
  Basis Set: AUG-CC-PVTZ
    Blend: AUG-CC-PVTZ
  Basis Set: (AUG-CC-PVTZ AUX)
    Blend: AUG-CC-PVTZ-JKFIT

    Orbital Energies [Eh]
    ---------------------

    Alpha Occupied:

       1Ap   -88.758057     2Ap   -88.758022     3Ap   -88.725571
       4Ap   -88.725527     5Ap    -7.762513     6Ap    -7.762471
       7Ap    -7.732553     8Ap    -7.732499     9Ap    -5.711331
      10Ap    -5.711290     1App   -5.708428     2App   -5.708389
      11Ap    -5.707964    12Ap    -5.707918    13Ap    -5.682690
      14Ap    -5.682640     3App   -5.677151     4App   -5.677098
      15Ap    -5.676134    16Ap    -5.676077    17Ap    -0.552067
      18Ap    -0.537756    19Ap    -0.390294    20Ap    -0.358857
      21Ap    -0.142908    22Ap    -0.115640     5App   -0.101370
      23Ap    -0.090902     6App   -0.082712    24Ap    -0.059584
       7App    0.014347    25Ap     0.015076     8App    0.035295
      26Ap     0.053922

    Alpha Virtual:

      27Ap     0.249396    28Ap     0.264735    29Ap     0.294493
      30Ap     0.307511     9App    0.318274    10App    0.322036
      31Ap     0.322660    32Ap     0.331551    33Ap     0.350403
      11App    0.355092    12App    0.359052    34Ap     0.374382
      35Ap     0.374700    36Ap     0.382186    37Ap     0.394452
      38Ap     0.450595    39Ap     0.460560    40Ap     0.467565
      13App    0.487251    14App    0.501579    41Ap     0.508038
      42Ap     0.521152    15App    0.544581    16App    0.553197
      43Ap     0.554115    44Ap     0.573303    45Ap     0.589219
      17App    0.591324    46Ap     0.592949    47Ap     0.607697
      48Ap     0.609693    18App    0.619946    49Ap     0.652123
      19App    0.655317    50Ap     0.664468    51Ap     0.686606
      20App    0.688109    52Ap     0.710205    21App    0.759383
      22App    0.800090    53Ap     0.803175    54Ap     0.817739
      55Ap     0.841290    23App    0.858484    24App    0.864058
      56Ap     0.868559    57Ap     0.870401    58Ap     0.879370
      59Ap     0.882058    25App    0.894888    60Ap     0.904678
      26App    0.907322    61Ap     0.915567    27App    0.921787
      62Ap     0.926774    63Ap     0.941761    28App    0.942850
      64Ap     0.966053    29App    0.968464    65Ap     0.977295
      66Ap     0.991654    67Ap     0.999095    30App    1.006304
      68Ap     1.006870    69Ap     1.021858    31App    1.042361
      32App    1.050611    70Ap     1.051418    33App    1.068085
      71Ap     1.071009    34App    1.071989    72Ap     1.098696
      73Ap     1.108378    74Ap     1.124182    35App    1.130474
      36App    1.134467    75Ap     1.164186    76Ap     1.165286
      77Ap     1.202151    37App    1.218704    78Ap     1.239218
      38App    1.263083    79Ap     1.271349    80Ap     1.332398
      39App    1.343595    40App    1.344262    81Ap     1.376274
      82Ap     1.403548    41App    1.426345    83Ap     1.435904
      84Ap     1.441577    85Ap     1.494703    86Ap     1.502293
      42App    1.523974    43App    1.554265    44App    1.574192
      87Ap     1.603597    88Ap     1.629401    89Ap     1.688750
      90Ap     1.723347    91Ap     1.840996    92Ap     1.865737
      45App    2.111269    93Ap     2.129902    46App    2.153273
      94Ap     2.161280    95Ap     2.194747    47App    2.195958
      96Ap     2.200335    48App    2.203385    97Ap     2.214131
      49App    2.218689    98Ap     2.241733    50App    2.266901
      99Ap     2.272765   100Ap     2.299298   101Ap     2.303565
      51App    2.309161   102Ap     2.354745    52App    2.359512
      53App    2.361922   103Ap     2.363087    54App    2.368800
      55App    2.412492   104Ap     2.419829   105Ap     2.419866
     106Ap     2.426135   107Ap     2.431264    56App    2.441419
      57App    2.450978   108Ap     2.469084    58App    2.469671
      59App    2.476424   109Ap     2.482064   110Ap     2.485651
      60App    2.503389   111Ap     2.515595   112Ap     2.539019
      61App    2.553277   113Ap     2.562833   114Ap     2.599927
      62App    2.606879   115Ap     2.607857    63App    2.635936
      64App    2.637419   116Ap     2.648136    65App    2.659809
     117Ap     2.702927    66App    2.718007   118Ap     2.749359
     119Ap     2.754452   120Ap     2.799605   121Ap     2.821098
     122Ap     2.852946   123Ap     2.872140    67App    2.928900
      68App    2.931128   124Ap     2.953897   125Ap     2.992851
     126Ap     3.024623   127Ap     3.992822   128Ap     4.037504
     129Ap     4.898483   130Ap     5.348796   131Ap     5.839710
     132Ap     6.020170

    Beta Occupied:

       1Ap   -88.753595     2Ap   -88.753561     3Ap   -88.723735
       4Ap   -88.723692     5Ap    -7.757804     6Ap    -7.757762
       7Ap    -7.730596     8Ap    -7.730544     9Ap    -5.707904
      10Ap    -5.707866    11Ap    -5.699548    12Ap    -5.699506
       1App   -5.699419     2App   -5.699380    13Ap    -5.680913
      14Ap    -5.680863     3App   -5.673072     4App   -5.673020
      15Ap    -5.672962    16Ap    -5.672909    17Ap    -0.531425
      18Ap    -0.518472    19Ap    -0.364732    20Ap    -0.326913
      21Ap    -0.127230    22Ap    -0.098704     5App   -0.071027
      23Ap    -0.065625     6App   -0.050242    24Ap    -0.038364
      25Ap     0.055141     7App    0.069977

    Beta Virtual:

       8App    0.224370    26Ap     0.243646    27Ap     0.258604
      28Ap     0.266174    29Ap     0.296181    30Ap     0.308947
       9App    0.319239    31Ap     0.322579    10App    0.325234
      32Ap     0.335929    33Ap     0.352547    11App    0.357143
      12App    0.362849    34Ap     0.381280    35Ap     0.381535
      36Ap     0.389061    37Ap     0.395565    38Ap     0.451763
      39Ap     0.463052    40Ap     0.469941    13App    0.491213
      14App    0.506099    41Ap     0.511093    42Ap     0.525206
      15App    0.548445    16App    0.559205    43Ap     0.560760
      44Ap     0.579945    45Ap     0.592599    46Ap     0.596448
      17App    0.598640    47Ap     0.614578    48Ap     0.617947
      18App    0.627888    49Ap     0.655105    19App    0.661431
      50Ap     0.667518    51Ap     0.689432    20App    0.693923
      52Ap     0.716733    21App    0.766411    22App    0.804666
      53Ap     0.807233    54Ap     0.822222    55Ap     0.844822
      23App    0.866070    56Ap     0.873071    57Ap     0.873227
      24App    0.874685    58Ap     0.888176    59Ap     0.892535
      25App    0.901799    60Ap     0.913353    26App    0.917658
      61Ap     0.923204    27App    0.930501    62Ap     0.933771
      63Ap     0.950655    28App    0.952066    64Ap     0.971231
      29App    0.978575    65Ap     0.990838    66Ap     1.000632
      67Ap     1.006999    68Ap     1.019849    30App    1.026351
      69Ap     1.027662    31App    1.054328    32App    1.057830
      70Ap     1.063418    33App    1.072247    71Ap     1.074514
      34App    1.083508    72Ap     1.111636    73Ap     1.114379
      74Ap     1.127443    35App    1.135997    36App    1.138170
      75Ap     1.170870    76Ap     1.172168    77Ap     1.207288
      37App    1.225108    78Ap     1.246130    38App    1.267015
      79Ap     1.277148    80Ap     1.335528    39App    1.347749
      40App    1.348409    81Ap     1.380939    82Ap     1.409393
      41App    1.431697    83Ap     1.441301    84Ap     1.445819
      85Ap     1.500036    86Ap     1.510260    42App    1.531683
      43App    1.561047    44App    1.580798    87Ap     1.611836
      88Ap     1.635789    89Ap     1.698148    90Ap     1.730985
      91Ap     1.851668    92Ap     1.879192    45App    2.128471
      93Ap     2.144912    46App    2.166462    94Ap     2.175291
      47App    2.205822    95Ap     2.205928    96Ap     2.209276
      48App    2.217218    97Ap     2.223250    49App    2.231935
      98Ap     2.252463    50App    2.282704    99Ap     2.285498
     100Ap     2.304960   101Ap     2.310843    51App    2.322908
     102Ap     2.363854    52App    2.373065   103Ap     2.373411
      53App    2.373620    54App    2.380015   104Ap     2.427840
      55App    2.431926   105Ap     2.431983   106Ap     2.441970
     107Ap     2.444997    56App    2.460705    57App    2.470348
      58App    2.479169   108Ap     2.482726    59App    2.490842
     109Ap     2.491239   110Ap     2.496509    60App    2.515540
     111Ap     2.532798   112Ap     2.553854    61App    2.573175
     113Ap     2.578198   114Ap     2.616318   115Ap     2.618078
      62App    2.623621    63App    2.651749    64App    2.652780
     116Ap     2.663776    65App    2.677074   117Ap     2.715434
      66App    2.731190   118Ap     2.763903   119Ap     2.764358
     120Ap     2.813999   121Ap     2.829840   122Ap     2.862121
     123Ap     2.879129    67App    2.940641    68App    2.942745
     124Ap     2.965301   125Ap     3.005096   126Ap     3.037686
     127Ap     3.998753   128Ap     4.043552   129Ap     4.908403
     130Ap     5.354534   131Ap     5.846347   132Ap     6.028452

    Final Occupation by Irrep:
             Ap   App
    DOCC [    25,    7 ]
    SOCC [     1,    1 ]

  @DF-UKS Final Energy: -1592.78649368473862

   => Energetics <=

    Nuclear Repulsion Energy =            268.8144705391396769
    One-Electron Energy =               -2758.6435984777299382
    Two-Electron Energy =                 972.1938076985824182
    DFT Exchange-Correlation Energy =     -75.1505214728422004
    Empirical Dispersion Energy =          -0.0006519718886464
    VV10 Nonlocal Energy =                  0.0000000000000000
    Total Energy =                      -1592.7864936847386161

  UHF NO Occupations:
  HONO-2 :   25 Ap 1.9946334
  HONO-1 :   26 Ap 1.0000000
  HONO-0 :    8App 1.0000000
  LUNO+0 :   27 Ap 0.0053666
  LUNO+1 :    9App 0.0030614
  LUNO+2 :   28 Ap 0.0012565
  LUNO+3 :   10App 0.0007191

Computation Completed

Properties will be evaluated at   0.000000,   0.000000,   0.000000 [a0]

Properties computed using the SCF density matrix

  Nuclear Dipole Moment: [e a0]
     X:     0.0000      Y:    -0.0000      Z:     0.0000

  Electronic Dipole Moment: [e a0]
     X:     0.0009      Y:    -0.0024      Z:     0.0000

  Dipole Moment: [e a0]
     X:     0.0009      Y:    -0.0024      Z:     0.0000     Total:     0.0025

  Dipole Moment: [D]
     X:     0.0022      Y:    -0.0061      Z:     0.0000     Total:     0.0065

*** tstop() called on d4-10.compute.lan at Thu Feb 11 15:36:38 2021
Module time:
	user time   =     227.31 seconds =       3.79 minutes
	system time =       1.10 seconds =       0.02 minutes
	total time  =        229 seconds =       3.82 minutes
Total time:
	user time   =    5659.72 seconds =      94.33 minutes
	system time =      25.90 seconds =       0.43 minutes
	total time  =       5688 seconds =      94.80 minutes

*** tstart() called on d4-10.compute.lan
*** at Thu Feb 11 15:36:38 2021

         ------------------------------------------------------------
                                   SCF GRAD
                          Rob Parrish, Justin Turney,
                       Andy Simmonett, and Alex Sokolov
         ------------------------------------------------------------

  ==> Geometry <==

    Molecular point group: cs
    Full point group: Cs

    Geometry (in Angstrom), charge = -2, multiplicity = 3:

       Center              X                  Y                   Z               Mass
    ------------   -----------------  -----------------  -----------------  -----------------
         S            0.000000000000     1.340249503093     0.000000000000    31.972071174400
         S            0.000000000000    -1.340717438331     0.000000000000    31.972071174400
         S           -1.615262093865     2.595894590904     0.000000000000    31.972071174400
         S            1.615262093865    -2.595426655665     0.000000000000    31.972071174400

  Nuclear repulsion =  268.814470539139677

  ==> Basis Set <==

  Basis Set: AUG-CC-PVTZ
    Blend: AUG-CC-PVTZ
    Number of shells: 64
    Number of basis function: 200
    Number of Cartesian functions: 236
    Spherical Harmonics?: true
    Max angular momentum: 3

  ==> DFJKGrad: Density-Fitted SCF Gradients <==

    Gradient:                    1
    J tasked:                  Yes
    K tasked:                  Yes
    wK tasked:                 Yes
    Omega:               2.000E-01
    OpenMP threads:              1
    Integrals threads:           1
    Memory [MiB]:            11444
    Schwarz Cutoff:          0E+00
    Fitting Condition:       1E-10

   => Auxiliary Basis Set <=

  Basis Set: (AUG-CC-PVTZ AUX)
    Blend: AUG-CC-PVTZ-JKFIT
    Number of shells: 168
    Number of basis function: 584
    Number of Cartesian functions: 720
    Spherical Harmonics?: true
    Max angular momentum: 4

  ==> DFT Potential <==

   => Composite Functional: WB97X-D <=

    wB97X-D Hyb-GGA Exchange-Correlation Functional

    J.-D. Chai and M. Head-Gordon, Phys. Chem. Chem. Phys. 10, 6615 (2008)

    Deriv               =              1
    GGA                 =           TRUE
    Meta                =          FALSE

    Exchange Hybrid     =           TRUE
    MP2 Hybrid          =          FALSE

   => Exchange-Correlation Functionals <=

    1.0000   wB97D range-separated functional

   => Exact (HF) Exchange <=

    0.7780            HF,LR [omega = 0.2000]
    0.2220               HF

   => Molecular Quadrature <=

    Radial Scheme          =       TREUTLER
    Pruning Scheme         =           NONE
    Nuclear Scheme         =       TREUTLER

    BS radius alpha        =              1
    Pruning alpha          =              1
    Radial Points          =             99
    Spherical Points       =            590
    Total Points           =         226205
    Total Blocks           =           1819
    Max Points             =            256
    Max Functions          =            200
    Weights Tolerance      =       1.00E-15

  -Total Gradient:
     Atom            X                  Y                   Z
    ------   -----------------  -----------------  -----------------
       1        0.000063223045    -0.000048443924     0.000000000000
       2        0.000064211435    -0.000048813511     0.000000000000
       3       -0.000064286842     0.000048223028     0.000000000000
       4       -0.000063154796     0.000049188576     0.000000000000

*** tstop() called on d4-10.compute.lan at Thu Feb 11 15:37:18 2021
Module time:
	user time   =      39.62 seconds =       0.66 minutes
	system time =       0.19 seconds =       0.00 minutes
	total time  =         40 seconds =       0.67 minutes
Total time:
	user time   =    5699.34 seconds =      94.99 minutes
	system time =      26.09 seconds =       0.43 minutes
	total time  =       5728 seconds =      95.47 minutes

         ----------------------------------------------------------
                                   FINDIF
                     R. A. King and Jonathon Misiewicz
         ---------------------------------------------------------

  Computing second-derivative from gradients using projected,
  symmetry-adapted, cartesian coordinates.

  10 gradients passed in, including the reference geometry.
  Generating complete list of displacements from unique ones.

    Operation 3 takes plus displacements of irrep Au to minus ones.
    Operation 2 takes plus displacements of irrep Bu to minus ones.

-------------------------------------------------------------

  ==> Harmonic Vibrational Analysis <==

  non-mass-weighted Hessian:       Symmetric? True   Hermitian? True   Lin Dep Dim?  6 (0)
  projection of translations (True) and rotations (True) removed 6 degrees of freedom (6)
  total projector:                 Symmetric? True   Hermitian? True   Lin Dep Dim?  6 (6)
  mass-weighted Hessian:           Symmetric? True   Hermitian? True   Lin Dep Dim?  6 (0)
  pre-proj  low-frequency mode:    0.0000i [cm^-1]
  pre-proj  low-frequency mode:    0.0000i [cm^-1]
  pre-proj  low-frequency mode:    0.0000i [cm^-1]
  pre-proj  low-frequency mode:    0.0000  [cm^-1]
  pre-proj  low-frequency mode:    0.0000  [cm^-1]
  pre-proj  low-frequency mode:    0.0000  [cm^-1]
  pre-proj  low-frequency mode:   49.0432  [cm^-1]
  pre-proj  low-frequency mode:   61.0914  [cm^-1]
  pre-proj  all modes:['0.0000i' '0.0000i' '0.0000i' '0.0000' '0.0000' '0.0000' '49.0432'
 '61.0914' '103.1215' '136.4330' '501.3543' '526.7713']
  projected mass-weighted Hessian: Symmetric? True   Hermitian? True   Lin Dep Dim?  6 (6)
  post-proj low-frequency mode:    0.0000i [cm^-1] (TR)
  post-proj low-frequency mode:    0.0000i [cm^-1] (TR)
  post-proj low-frequency mode:    0.0000  [cm^-1] (TR)
  post-proj low-frequency mode:    0.0000  [cm^-1] (TR)
  post-proj low-frequency mode:    0.0000  [cm^-1] (TR)
  post-proj low-frequency mode:    0.0000  [cm^-1] (TR)
  post-proj low-frequency mode:   49.0432  [cm^-1] (V)
  post-proj low-frequency mode:   61.0914  [cm^-1] (V)
  post-proj  all modes:['0.0000i' '0.0000i' '0.0000' '0.0000' '0.0000' '0.0000' '49.0432'
 '61.0914' '103.1215' '136.4330' '501.3543' '526.7713']

  Vibration                       7                   8                   9
  Freq [cm^-1]                 49.0432             61.0914             103.1215
  Irrep                           Bu                  Au                  Ag
  Reduced mass [u]             31.9721             31.9721             31.9721
  Force const [mDyne/A]         0.0453              0.0703              0.2003
  Turning point v=0 [a0]        0.2771              0.2483              0.1911
  RMS dev v=0 [a0 u^1/2]        1.1079              0.9927              0.7641
  Char temp [K]                70.5623             87.8970             148.3689
  ----------------------------------------------------------------------------------
      1   S                0.30  0.40 -0.00    0.00 -0.00  0.50   -0.29  0.37  0.00
      2   S                0.30  0.40  0.00   -0.00  0.00  0.50    0.29 -0.37  0.00
      3   S               -0.30 -0.40 -0.00    0.00  0.00 -0.50   -0.16  0.50 -0.00
      4   S               -0.30 -0.40 -0.00   -0.00  0.00 -0.50    0.16 -0.50 -0.00

  Vibration                       10                  11                  12
  Freq [cm^-1]                 136.4330            501.3543            526.7713
  Irrep                           Ag                  Bu                  Ag
  Reduced mass [u]             31.9721             31.9721             31.9721
  Force const [mDyne/A]         0.3506              4.7349              5.2272
  Turning point v=0 [a0]        0.1661              0.0867              0.0846
  RMS dev v=0 [a0 u^1/2]        0.6643              0.3465              0.3381
  Char temp [K]                196.2967            721.3372            757.9066
  ----------------------------------------------------------------------------------
      1   S                0.39  0.55  0.00    0.40 -0.30 -0.00    0.43 -0.25 -0.00
      2   S               -0.39 -0.55  0.00    0.40 -0.30 -0.00   -0.43  0.25  0.00
      3   S               -0.08 -0.20  0.00   -0.40  0.30 -0.00   -0.41  0.30  0.00
      4   S                0.08  0.20 -0.00   -0.40  0.30  0.00    0.41 -0.30 -0.00

  ==> Thermochemistry Components <==

  Entropy, S
    Electronic S            2.183 [cal/(mol K)]        9.134 [J/(mol K)]       0.00347910 [mEh/K] (multiplicity = 3)
    Translational S        40.451 [cal/(mol K)]      169.248 [J/(mol K)]       0.06446314 [mEh/K] (mol. weight = 127.8883 [u], P = 101325.00 [Pa])
    Rotational S           26.544 [cal/(mol K)]      111.062 [J/(mol K)]       0.04230126 [mEh/K] (symmetry no. = 2)
    Vibrational S          16.774 [cal/(mol K)]       70.183 [J/(mol K)]       0.02673132 [mEh/K]
  Total S                  85.953 [cal/(mol K)]      359.627 [J/(mol K)]       0.13697481 [mEh/K]
  Correction S              0.000 [cal/(mol K)]        0.000 [J/(mol K)]       0.00000000 [mEh/K]

  Constant volume heat capacity, Cv
    Electronic Cv           0.000 [cal/(mol K)]        0.000 [J/(mol K)]       0.00000000 [mEh/K]
    Translational Cv        2.981 [cal/(mol K)]       12.472 [J/(mol K)]       0.00475022 [mEh/K]
    Rotational Cv           2.981 [cal/(mol K)]       12.472 [J/(mol K)]       0.00475022 [mEh/K]
    Vibrational Cv         10.252 [cal/(mol K)]       42.895 [J/(mol K)]       0.01633796 [mEh/K]
  Total Cv                 16.214 [cal/(mol K)]       67.839 [J/(mol K)]       0.02583839 [mEh/K]
  Correction Cv             0.000 [cal/(mol K)]        0.000 [J/(mol K)]       0.00000000 [mEh/K]

  Constant pressure heat capacity, Cp
    Electronic Cp           0.000 [cal/(mol K)]        0.000 [J/(mol K)]       0.00000000 [mEh/K]
    Translational Cp        4.968 [cal/(mol K)]       20.786 [J/(mol K)]       0.00791703 [mEh/K]
    Rotational Cp           2.981 [cal/(mol K)]       12.472 [J/(mol K)]       0.00475022 [mEh/K]
    Vibrational Cp         10.252 [cal/(mol K)]       42.895 [J/(mol K)]       0.01633796 [mEh/K]
  Total Cp                 18.201 [cal/(mol K)]       76.153 [J/(mol K)]       0.02900520 [mEh/K]
  Correction Cp             0.000 [cal/(mol K)]        0.000 [J/(mol K)]       0.00000000 [mEh/K]

  ==> Thermochemistry Energy Analysis <==

  Raw electronic energy, E0
  Total E0, Electronic energy at well bottom at 0 [K]                -1592.78649373 [Eh]

  Zero-point energy, ZPE_vib = Sum_i nu_i / 2
    Electronic ZPE          0.000 [kcal/mol]        0.000 [kJ/mol]       0.00000000 [Eh]
    Translational ZPE       0.000 [kcal/mol]        0.000 [kJ/mol]       0.00000000 [Eh]
    Rotational ZPE          0.000 [kcal/mol]        0.000 [kJ/mol]       0.00000000 [Eh]
    Vibrational ZPE         1.970 [kcal/mol]        8.241 [kJ/mol]       0.00313889 [Eh]         688.907 [cm^-1]
  Correction ZPE            1.970 [kcal/mol]        8.241 [kJ/mol]       0.00313889 [Eh]         688.907 [cm^-1]
  Total ZPE, Electronic energy at 0 [K]                              -1592.78335484 [Eh]

  Thermal Energy, E (includes ZPE)
    Electronic E            0.000 [kcal/mol]        0.000 [kJ/mol]       0.00000000 [Eh]
    Translational E         0.889 [kcal/mol]        3.718 [kJ/mol]       0.00141628 [Eh]
    Rotational E            0.889 [kcal/mol]        3.718 [kJ/mol]       0.00141628 [Eh]
    Vibrational E           4.149 [kcal/mol]       17.359 [kJ/mol]       0.00661163 [Eh]
  Correction E              5.926 [kcal/mol]       24.796 [kJ/mol]       0.00944418 [Eh]
  Total E, Electronic energy at  298.15 [K]                          -1592.77704955 [Eh]

  Enthalpy, H_trans = E_trans + k_B * T
    Electronic H            0.000 [kcal/mol]        0.000 [kJ/mol]       0.00000000 [Eh]
    Translational H         1.481 [kcal/mol]        6.197 [kJ/mol]       0.00236046 [Eh]
    Rotational H            0.889 [kcal/mol]        3.718 [kJ/mol]       0.00141628 [Eh]
    Vibrational H           4.149 [kcal/mol]       17.359 [kJ/mol]       0.00661163 [Eh]
  Correction H              6.519 [kcal/mol]       27.275 [kJ/mol]       0.01038837 [Eh]
  Total H, Enthalpy at  298.15 [K]                                   -1592.77610536 [Eh]

  Gibbs free energy, G = H - T * S
    Electronic G           -0.651 [kcal/mol]       -2.723 [kJ/mol]      -0.00103729 [Eh]
    Translational G       -10.579 [kcal/mol]      -44.264 [kJ/mol]      -0.01685922 [Eh]
    Rotational G           -7.025 [kcal/mol]      -29.395 [kJ/mol]      -0.01119584 [Eh]
    Vibrational G          -0.852 [kcal/mol]       -3.566 [kJ/mol]      -0.00135831 [Eh]
  Correction G            -19.108 [kcal/mol]      -79.948 [kJ/mol]      -0.03045067 [Eh]
  Total G, Free enthalpy at  298.15 [K]                              -1592.81694440 [Eh]

*** Psi4 exiting successfully. Buy a developer a beer!
