                               Psi4 1.4a2.dev191

  ==> Input File <==

--------------------------------------------------------------------------
memory 10 GB

molecule  {
-1 2
S
S 1 r1
r1 = 2.0
}

set {
reference uks
basis aug-cc-pvtz
g_convergence gau_verytight
dft_spherical_points 590
dft_radial_points 99
}

optimize('wb97m-v')
frequencies('wb97m-v')

--------------------------------------------------------------------------

    Molecular point group: d2h
  Charge       = -1
  Multiplicity = 2
  Basis Set: AUG-CC-PVTZ
    Blend: AUG-CC-PVTZ
  Basis Set: (AUG-CC-PVTZ AUX)
    Blend: AUG-CC-PVTZ-JKFIT
  @DF-UKS Final Energy:  -796.42263538470388
    Total Energy =                       -796.4226353847037672
    Molecular point group: d2h
  Basis Set: AUG-CC-PVTZ
    Blend: AUG-CC-PVTZ
  Basis Set: (AUG-CC-PVTZ AUX)
    Blend: AUG-CC-PVTZ-JKFIT
  @DF-UKS Final Energy:  -796.42263868334112
    Total Energy =                       -796.4226386833411198
  Basis Set: AUG-CC-PVTZ
    Blend: AUG-CC-PVTZ
  Basis Set: (AUG-CC-PVTZ AUX)
    Blend: AUG-CC-PVTZ-JKFIT
  @DF-UKS Final Energy:  -796.42263172539174
    Total Energy =                       -796.4226317253916250
  Basis Set: AUG-CC-PVTZ
    Blend: AUG-CC-PVTZ
  Basis Set: (AUG-CC-PVTZ AUX)
    Blend: AUG-CC-PVTZ-JKFIT
  @DF-UKS Final Energy:  -796.42265033324475
    Total Energy =                       -796.4226503332446327
  @DF-UKS Final Energy:  -796.42265133257604
    Total Energy =                       -796.4226513325758106
  @DF-UKS Final Energy:  -796.42264897806490
    Total Energy =                       -796.4226489780648990
  @DF-UKS Final Energy:  -796.42265229405507
    Total Energy =                       -796.4226522940551831
  @DF-UKS Final Energy:  -796.42265213670578
    Total Energy =                       -796.4226521367058922
  @DF-UKS Final Energy:  -796.42265210148742
    Total Energy =                       -796.4226521014873015
  @DF-UKS Final Energy:  -796.42265229413795
    Total Energy =                       -796.4226522941379471
  @DF-UKS Final Energy:  -796.42265211888798
    Total Energy =                       -796.4226521188880952
  @DF-UKS Final Energy:  -796.42265211930544
    Total Energy =                       -796.4226521193054396
  **** Optimization is complete! (in 4 steps) ****
    Final optimized geometry and variables:
  @DF-UKS Final Energy:  -796.42265229413806
    Total Energy =                       -796.4226522941382882
  @DF-UKS Final Energy:  -796.42265211888798
    Total Energy =                       -796.4226521188878678
  Basis Set: AUG-CC-PVTZ
    Blend: AUG-CC-PVTZ
  Basis Set: (AUG-CC-PVTZ AUX)
    Blend: AUG-CC-PVTZ-JKFIT
  @DF-UKS Final Energy:  -796.42265211930612
    Total Energy =                       -796.4226521193060080
  Basis Set: AUG-CC-PVTZ
    Blend: AUG-CC-PVTZ
  Basis Set: (AUG-CC-PVTZ AUX)
    Blend: AUG-CC-PVTZ-JKFIT
  @DF-UKS Final Energy:  -796.42265229413806
    Total Energy =                       -796.4226522941382882
  Multiplicity = 2
  Basis Set: AUG-CC-PVTZ
    Blend: AUG-CC-PVTZ
  Basis Set: (AUG-CC-PVTZ AUX)
    Blend: AUG-CC-PVTZ-JKFIT
  @DF-UKS Final Energy:  -796.42265211888798
    Total Energy =                       -796.4226521188878678
    Molecular point group: d2h

    Geometry (in Angstrom), charge = -1, multiplicity = 2:

       Center              X                  Y                   Z               Mass
    ------------   -----------------  -----------------  -----------------  -----------------
         S            0.000000000000     0.000000000000    -1.002901632471    31.972071174400
         S            0.000000000000     0.000000000000     1.002901632471    31.972071174400

  Charge       = -1
  Multiplicity = 2
  Basis Set: AUG-CC-PVTZ
    Blend: AUG-CC-PVTZ
  Basis Set: (AUG-CC-PVTZ AUX)
    Blend: AUG-CC-PVTZ-JKFIT

    Orbital Energies [Eh]
    ---------------------

    Alpha Occupied:

       1B1u  -88.992742     1Ag   -88.992739     2Ag    -7.904007
       2B1u   -7.903930     1B2u   -5.815384     1B3g   -5.815369
       3Ag    -5.813785     3B1u   -5.813442     1B3u   -5.805638
       1B2g   -5.805621     4Ag    -0.672630     4B1u   -0.490736
       5Ag    -0.231251     2B2u   -0.217245     2B3u   -0.199391
       2B3g   -0.093801     2B2g   -0.074716

    Alpha Virtual:

       5B1u    0.154056     6Ag     0.204999     3B2u    0.212425
       3B3u    0.216909     3B3g    0.227247     3B2g    0.231082
       7Ag     0.256446     6B1u    0.280004     7B1u    0.361181
       1B1g    0.387772     8Ag     0.387922     4B2u    0.433762
       4B3u    0.441537     9Ag     0.461134     1Au     0.480781
       8B1u    0.480949     9B1u    0.529427     4B3g    0.530014
       4B2g    0.532962     5B2u    0.655632     5B3u    0.667455
      10B1u    0.742682    10Ag     0.752053     5B3g    0.759792
       6B2u    0.764266     5B2g    0.769776     6B3u    0.776249
      11Ag     0.777577     2B1g    0.804428    12Ag     0.805211
      13Ag     0.878154    11B1u    0.887592     2Au     0.887751
       7B3u    0.923043     7B2u    0.923056     6B3g    0.951721
       6B2g    0.965181     3B1g    0.988540    14Ag     0.989208
       7B2g    1.060194     7B3g    1.060207    12B1u    1.061324
       8B2u    1.209918     8B3u    1.221709    13B1u    1.245136
       3Au     1.247511    14B1u    1.263787     8B3g    1.407722
       8B2g    1.420450    15Ag     1.485585    15B1u    1.646433
      16Ag     1.998714     4B1g    1.998781    16B1u    2.052650
       9B2u    2.055300     4Au     2.070685     9B3u    2.072958
      17B1u    2.073912     9B3g    2.175127    17Ag     2.178882
       9B2g    2.199612    10B2u    2.234414    10B3u    2.250435
      18Ag     2.283596     5B1g    2.284897    19Ag     2.298222
      11B2u    2.302342    11B3u    2.327658    12B2u    2.332560
      12B3u    2.333506    10B3g    2.389719    10B2g    2.389776
      18B1u    2.517142     5Au     2.518033    11B3g    2.521039
      11B2g    2.541784    19B1u    2.641501    20Ag     2.737589
      12B3g    2.814134    12B2g    2.833727    20B1u    3.883156
      21Ag     4.704028    21B1u    5.531823

    Beta Occupied:

       1B1u  -88.989855     1Ag   -88.989853     2Ag    -7.901111
       2B1u   -7.901003     3Ag    -5.811971     3B1u   -5.811628
       1B2u   -5.804959     1B3g   -5.804933     1B3u   -5.803567
       1B2g   -5.803550     4Ag    -0.659387     4B1u   -0.464340
       5Ag    -0.219469     2B3u   -0.192218     2B2u   -0.167917
       2B2g   -0.065191

    Beta Virtual:

       2B3g    0.150356     5B1u    0.153230     6Ag     0.203973
       3B2u    0.212553     3B3u    0.218116     3B2g    0.232135
       3B3g    0.233982     7Ag     0.258802     6B1u    0.285020
       7B1u    0.364087     8Ag     0.390783     1B1g    0.391544
       4B3u    0.443283     4B2u    0.446314     9Ag     0.462654
       8B1u    0.482941     1Au     0.484650     4B3g    0.530109
       9B1u    0.531058     4B2g    0.533668     5B2u    0.665369
       5B3u    0.670175    10B1u    0.747412    10Ag     0.753101
       5B3g    0.766291     5B2g    0.771128     6B2u    0.780008
       6B3u    0.780842    11Ag     0.783013     2B1g    0.813910
      12Ag     0.814449    13Ag     0.886566     2Au     0.904701
      11B1u    0.905061     7B2u    0.926435     7B3u    0.926680
       6B3g    0.968489     6B2g    0.969976     3B1g    0.995942
      14Ag     0.996018     7B3g    1.064981     7B2g    1.065340
      12B1u    1.069053     8B2u    1.217695     8B3u    1.222302
      13B1u    1.250207     3Au     1.252121    14B1u    1.265972
       8B3g    1.419487     8B2g    1.422205    15Ag     1.499492
      15B1u    1.663470     4B1g    2.026590    16Ag     2.027155
      16B1u    2.064102     9B3u    2.075078     9B2u    2.075145
       4Au     2.097951    17B1u    2.098722    17Ag     2.185058
       9B2g    2.207652     9B3g    2.215240    10B2u    2.253438
      10B3u    2.253870    18Ag     2.299240     5B1g    2.300136
      19Ag     2.305713    11B3u    2.339516    11B2u    2.348944
      12B3u    2.357795    12B2u    2.358475    10B2g    2.414814
      10B3g    2.415370    18B1u    2.534141     5Au     2.535044
      11B2g    2.546763    11B3g    2.548602    19B1u    2.651299
      20Ag     2.746131    12B2g    2.838117    12B3g    2.839443
      20B1u    3.887962    21Ag     4.717429    21B1u    5.543094

    Final Occupation by Irrep:
             Ag   B1g   B2g   B3g    Au   B1u   B2u   B3u
    DOCC [     5,    0,    2,    1,    0,    4,    2,    2 ]
    SOCC [     0,    0,    0,    1,    0,    0,    0,    0 ]

  @DF-UKS Final Energy:  -796.42265211930612

   => Energetics <=

    Nuclear Repulsion Energy =             67.5387104504599591
    One-Electron Energy =               -1242.0815715451162760
    Two-Electron Energy =                 417.6356244208419071
    DFT Exchange-Correlation Energy =     -39.6516381335537531
    Empirical Dispersion Energy =           0.0000000000000000
    VV10 Nonlocal Energy =                  0.1362226880620056
    Total Energy =                       -796.4226521193061217

  UHF NO Occupations:
  HONO-2 :    4B1u 1.9997681
  HONO-1 :    2B2u 1.9982250
  HONO-0 :    2B3g 1.0000000
  LUNO+0 :    3B2u 0.0017750
  LUNO+1 :    5B1u 0.0002319
  LUNO+2 :    6 Ag 0.0001437
  LUNO+3 :    3B2g 0.0001241

Computation Completed

Properties will be evaluated at   0.000000,   0.000000,   0.000000 [a0]

Properties computed using the SCF density matrix

  Nuclear Dipole Moment: [e a0]
     X:     0.0000      Y:     0.0000      Z:     0.0000

  Electronic Dipole Moment: [e a0]
     X:     0.0000      Y:     0.0000      Z:     0.0000

  Dipole Moment: [e a0]
     X:     0.0000      Y:     0.0000      Z:     0.0000     Total:     0.0000

  Dipole Moment: [D]
     X:     0.0000      Y:     0.0000      Z:     0.0000     Total:     0.0000

*** tstop() called on c2-1.compute.lan at Tue Feb  2 12:06:19 2021
Module time:
	user time   =      35.42 seconds =       0.59 minutes
	system time =       0.12 seconds =       0.00 minutes
	total time  =         36 seconds =       0.60 minutes
Total time:
	user time   =     440.28 seconds =       7.34 minutes
	system time =       2.59 seconds =       0.04 minutes
	total time  =        445 seconds =       7.42 minutes

         ----------------------------------------------------------
                                   FINDIF
                     R. A. King and Jonathon Misiewicz
         ---------------------------------------------------------

  Computing second-derivative from energies using projected,
  symmetry-adapted, cartesian coordinates.

  3 energies passed in, including the reference geometry.
    Using 3-point formula.
    Energy without displacement: -796.4226522941
    Check energies below for precision!
    0: -1 :      -796.4226521189
    0: 1  :      -796.4226521193

-------------------------------------------------------------

  ==> Harmonic Vibrational Analysis <==

  non-mass-weighted Hessian:       Symmetric? True   Hermitian? True   Lin Dep Dim?  5 (0)
  projection of translations (True) and rotations (True) removed 5 degrees of freedom (5)
  total projector:                 Symmetric? True   Hermitian? True   Lin Dep Dim?  5 (5)
  mass-weighted Hessian:           Symmetric? True   Hermitian? True   Lin Dep Dim?  5 (0)
  pre-proj  low-frequency mode:    0.0000  [cm^-1]
  pre-proj  low-frequency mode:    0.0000  [cm^-1]
  pre-proj  low-frequency mode:    0.0000  [cm^-1]
  pre-proj  low-frequency mode:    0.0000  [cm^-1]
  pre-proj  low-frequency mode:    0.0000  [cm^-1]
  pre-proj  all modes:['0.0000' '0.0000' '0.0000' '0.0000' '0.0000' '608.3019']
  projected mass-weighted Hessian: Symmetric? True   Hermitian? True   Lin Dep Dim?  5 (5)
  post-proj low-frequency mode:    0.0000i [cm^-1] (TR)
  post-proj low-frequency mode:    0.0000  [cm^-1] (TR)
  post-proj low-frequency mode:    0.0000  [cm^-1] (TR)
  post-proj low-frequency mode:    0.0000  [cm^-1] (TR)
  post-proj low-frequency mode:    0.0000  [cm^-1] (TR)
  post-proj  all modes:['0.0000i' '0.0000' '0.0000' '0.0000' '0.0000' '608.3019']

  Vibration                       6
  Freq [cm^-1]                 608.3019
  Irrep                           Ag
  Reduced mass [u]             31.9721
  Force const [mDyne/A]         6.9704
  Turning point v=0 [a0]        0.0787
  RMS dev v=0 [a0 u^1/2]        0.3146
  Char temp [K]                875.2110
  ----------------------------------------------------------------------------------
      1   S                0.00  0.00  0.71
      2   S               -0.00  0.00 -0.71

  ==> Thermochemistry Components <==

  Entropy, S
    Electronic S            1.377 [cal/(mol K)]        5.763 [J/(mol K)]       0.00219507 [mEh/K] (multiplicity = 2)
    Translational S        38.385 [cal/(mol K)]      160.603 [J/(mol K)]       0.06117054 [mEh/K] (mol. weight = 63.9441 [u], P = 101325.00 [Pa])
    Rotational S           13.871 [cal/(mol K)]       58.038 [J/(mol K)]       0.02210534 [mEh/K] (symmetry no. = 2)
    Vibrational S           0.436 [cal/(mol K)]        1.823 [J/(mol K)]       0.00069417 [mEh/K]
  Total S                  54.069 [cal/(mol K)]      226.226 [J/(mol K)]       0.08616511 [mEh/K]
  Correction S              0.000 [cal/(mol K)]        0.000 [J/(mol K)]       0.00000000 [mEh/K]

  Constant volume heat capacity, Cv
    Electronic Cv           0.000 [cal/(mol K)]        0.000 [J/(mol K)]       0.00000000 [mEh/K]
    Translational Cv        2.981 [cal/(mol K)]       12.472 [J/(mol K)]       0.00475022 [mEh/K]
    Rotational Cv           1.987 [cal/(mol K)]        8.314 [J/(mol K)]       0.00316681 [mEh/K]
    Vibrational Cv          1.014 [cal/(mol K)]        4.244 [J/(mol K)]       0.00161628 [mEh/K]
  Total Cv                  5.982 [cal/(mol K)]       25.030 [J/(mol K)]       0.00953330 [mEh/K]
  Correction Cv             0.000 [cal/(mol K)]        0.000 [J/(mol K)]       0.00000000 [mEh/K]

  Constant pressure heat capacity, Cp
    Electronic Cp           0.000 [cal/(mol K)]        0.000 [J/(mol K)]       0.00000000 [mEh/K]
    Translational Cp        4.968 [cal/(mol K)]       20.786 [J/(mol K)]       0.00791703 [mEh/K]
    Rotational Cp           1.987 [cal/(mol K)]        8.314 [J/(mol K)]       0.00316681 [mEh/K]
    Vibrational Cp          1.014 [cal/(mol K)]        4.244 [J/(mol K)]       0.00161628 [mEh/K]
  Total Cp                  7.969 [cal/(mol K)]       33.344 [J/(mol K)]       0.01270011 [mEh/K]
  Correction Cp             0.000 [cal/(mol K)]        0.000 [J/(mol K)]       0.00000000 [mEh/K]

  ==> Thermochemistry Energy Analysis <==

  Raw electronic energy, E0
  Total E0, Electronic energy at well bottom at 0 [K]                 -796.42265229 [Eh]

  Zero-point energy, ZPE_vib = Sum_i nu_i / 2
    Electronic ZPE          0.000 [kcal/mol]        0.000 [kJ/mol]       0.00000000 [Eh]
    Translational ZPE       0.000 [kcal/mol]        0.000 [kJ/mol]       0.00000000 [Eh]
    Rotational ZPE          0.000 [kcal/mol]        0.000 [kJ/mol]       0.00000000 [Eh]
    Vibrational ZPE         0.870 [kcal/mol]        3.638 [kJ/mol]       0.00138581 [Eh]         304.151 [cm^-1]
  Correction ZPE            0.870 [kcal/mol]        3.638 [kJ/mol]       0.00138581 [Eh]         304.151 [cm^-1]
  Total ZPE, Electronic energy at 0 [K]                               -796.42126648 [Eh]

  Thermal Energy, E (includes ZPE)
    Electronic E            0.000 [kcal/mol]        0.000 [kJ/mol]       0.00000000 [Eh]
    Translational E         0.889 [kcal/mol]        3.718 [kJ/mol]       0.00141628 [Eh]
    Rotational E            0.592 [kcal/mol]        2.479 [kJ/mol]       0.00094418 [Eh]
    Vibrational E           0.967 [kcal/mol]        4.047 [kJ/mol]       0.00154126 [Eh]
  Correction E              2.448 [kcal/mol]       10.244 [kJ/mol]       0.00390172 [Eh]
  Total E, Electronic energy at  298.15 [K]                           -796.41875058 [Eh]

  Enthalpy, H_trans = E_trans + k_B * T
    Electronic H            0.000 [kcal/mol]        0.000 [kJ/mol]       0.00000000 [Eh]
    Translational H         1.481 [kcal/mol]        6.197 [kJ/mol]       0.00236046 [Eh]
    Rotational H            0.592 [kcal/mol]        2.479 [kJ/mol]       0.00094418 [Eh]
    Vibrational H           0.967 [kcal/mol]        4.047 [kJ/mol]       0.00154126 [Eh]
  Correction H              3.041 [kcal/mol]       12.723 [kJ/mol]       0.00484590 [Eh]
  Total H, Enthalpy at  298.15 [K]                                    -796.41780639 [Eh]

  Gibbs free energy, G = H - T * S
    Electronic G           -0.411 [kcal/mol]       -1.718 [kJ/mol]      -0.00065446 [Eh]
    Translational G        -9.963 [kcal/mol]      -41.686 [kJ/mol]      -0.01587754 [Eh]
    Rotational G           -3.543 [kcal/mol]      -14.825 [kJ/mol]      -0.00564652 [Eh]
    Vibrational G           0.837 [kcal/mol]        3.503 [kJ/mol]       0.00133429 [Eh]
  Correction G            -13.080 [kcal/mol]      -54.727 [kJ/mol]      -0.02084423 [Eh]
  Total G, Free enthalpy at  298.15 [K]                               -796.44349652 [Eh]

    Psi4 stopped on: Tuesday, 02 February 2021 12:06PM
    Psi4 wall time for execution: 0:07:25.22

*** Psi4 exiting successfully. Buy a developer a beer!
