                               Psi4 1.4a2.dev191

  ==> Input File <==

--------------------------------------------------------------------------
memory 10 GB

molecule  {
0 1
S
S 1 r1
S 1 r2 2 a1
r1 = 2.0
r2 = 2.1
a1 = 120.0
}

set {
reference uks
basis aug-cc-pvtz
g_convergence gau_verytight
dft_spherical_points 590
dft_radial_points 99
}

optimize('wb97x-d')
frequencies('wb97x-d')

--------------------------------------------------------------------------

    Molecular point group: cs
  Charge       = 0
  Multiplicity = 1
  Basis Set: AUG-CC-PVTZ
    Blend: AUG-CC-PVTZ
  Basis Set: (AUG-CC-PVTZ AUX)
    Blend: AUG-CC-PVTZ-JKFIT
  @DF-UKS Final Energy: -1194.57310051874310
    Total Energy =                      -1194.5731005187431037
    Molecular point group: cs
  Basis Set: AUG-CC-PVTZ
    Blend: AUG-CC-PVTZ
  Basis Set: (AUG-CC-PVTZ AUX)
    Blend: AUG-CC-PVTZ-JKFIT
  Basis Set: AUG-CC-PVTZ
    Blend: AUG-CC-PVTZ
  Basis Set: (AUG-CC-PVTZ AUX)
    Blend: AUG-CC-PVTZ-JKFIT
  @DF-UKS Final Energy: -1194.59001386342652
    Total Energy =                      -1194.5900138634265204
  Basis Set: AUG-CC-PVTZ
    Blend: AUG-CC-PVTZ
  Basis Set: (AUG-CC-PVTZ AUX)
    Blend: AUG-CC-PVTZ-JKFIT
  Basis Set: AUG-CC-PVTZ
    Blend: AUG-CC-PVTZ
  @DF-UKS Final Energy: -1194.59157521674206
    Total Energy =                      -1194.5915752167420578
  @DF-UKS Final Energy: -1194.59194931855450
    Total Energy =                      -1194.5919493185544979
  @DF-UKS Final Energy: -1194.59206060946099
    Total Energy =                      -1194.5920606094609866
  @DF-UKS Final Energy: -1194.59206376858083
    Total Energy =                      -1194.5920637685806014
  @DF-UKS Final Energy: -1194.59206379810530
    Total Energy =                      -1194.5920637981053005
  @DF-UKS Final Energy: -1194.59206379508987
    Total Energy =                      -1194.5920637950898708
  **** Optimization is complete! (in 8 steps) ****
    Final optimized geometry and variables:
  @DF-UKS Final Energy: -1194.59206379509328
    Total Energy =                      -1194.5920637950932814
  @DF-UKS Final Energy: -1194.59206379509328
    Total Energy =                      -1194.5920637950932814
  @DF-UKS Final Energy: -1194.59206363028125
    Total Energy =                      -1194.5920636302810180
  @DF-UKS Final Energy: -1194.59206365561135
    Total Energy =                      -1194.5920636556113550
  @DF-UKS Final Energy: -1194.59206357165795
    Total Energy =                      -1194.5920635716579454
  @DF-UKS Final Energy: -1194.59206358378015
    Total Energy =                      -1194.5920635837799182
  Basis Set: (AUG-CC-PVTZ AUX)
    Blend: AUG-CC-PVTZ-JKFIT
  Basis Set: AUG-CC-PVTZ
    Blend: AUG-CC-PVTZ
  Basis Set: (AUG-CC-PVTZ AUX)
    Blend: AUG-CC-PVTZ-JKFIT
  @DF-UKS Final Energy: -1194.59206364503143
    Total Energy =                      -1194.5920636450314305
  Basis Set: AUG-CC-PVTZ
    Blend: AUG-CC-PVTZ
  Basis Set: (AUG-CC-PVTZ AUX)
    Blend: AUG-CC-PVTZ-JKFIT
    Molecular point group: cs
  Charge       = 0
  Multiplicity = 1
  Basis Set: AUG-CC-PVTZ
    Blend: AUG-CC-PVTZ
  Basis Set: (AUG-CC-PVTZ AUX)
    Blend: AUG-CC-PVTZ-JKFIT

    Orbital Energies [Eh]
    ---------------------

    Alpha Occupied:

       1Ap   -89.192697     2Ap   -89.086516     3Ap   -89.086513
       4Ap    -8.192052     5Ap    -8.095603     6Ap    -8.095592
       7Ap    -6.139642     1App   -6.139532     8Ap    -6.134834
       9Ap    -6.044855    10Ap    -6.044853     2App   -6.042225
       3App   -6.042224    11Ap    -6.035545    12Ap    -6.035544
      13Ap    -0.992504    14Ap    -0.844552    15Ap    -0.682676
      16Ap    -0.518589    17Ap    -0.501239     4App   -0.495027
       5App   -0.356734    18Ap    -0.349487    19Ap    -0.348750

    Alpha Virtual:

       6App   -0.103143    20Ap     0.026153    21Ap     0.052778
      22Ap     0.068909    23Ap     0.080667     7App    0.088090
      24Ap     0.090977    25Ap     0.106406    26Ap     0.110137
       8App    0.113384    27Ap     0.118497     9App    0.118801
      28Ap     0.140558    29Ap     0.185404    10App    0.188354
      30Ap     0.206123    11App    0.208843    31Ap     0.214708
      32Ap     0.258824    33Ap     0.280116    34Ap     0.284463
      12App    0.294413    35Ap     0.295428    13App    0.300258
      14App    0.352501    36Ap     0.364941    37Ap     0.372046
      15App    0.400647    38Ap     0.402513    39Ap     0.422526
      16App    0.442553    40Ap     0.479974    17App    0.514495
      41Ap     0.535530    42Ap     0.548701    18App    0.550538
      43Ap     0.554906    44Ap     0.561521    19App    0.572191
      20App    0.572818    45Ap     0.575449    46Ap     0.584159
      47Ap     0.613295    21App    0.625592    48Ap     0.637529
      49Ap     0.643514    22App    0.645077    50Ap     0.662347
      51Ap     0.681035    52Ap     0.701467    23App    0.704853
      24App    0.744950    53Ap     0.755875    25App    0.762846
      54Ap     0.811809    26App    0.812128    55Ap     0.814720
      27App    0.822504    56Ap     0.864631    57Ap     0.899596
      58Ap     0.902410    59Ap     0.994523    28App    0.999996
      29App    1.011525    60Ap     1.044884    30App    1.067720
      61Ap     1.079698    31App    1.145262    62Ap     1.153851
      63Ap     1.186741    64Ap     1.195788    32App    1.228613
      33App    1.237398    65Ap     1.237584    66Ap     1.332376
      67Ap     1.358987    68Ap     1.438772    69Ap     1.488867
      70Ap     1.774001    34App    1.778324    35App    1.809172
      71Ap     1.820611    72Ap     1.849186    36App    1.850938
      73Ap     1.862840    37App    1.862959    74Ap     1.895120
      38App    1.917475    75Ap     1.936389    76Ap     1.968757
      77Ap     1.971352    39App    1.985823    78Ap     1.994835
      40App    2.015974    79Ap     2.019165    41App    2.045011
      80Ap     2.047081    42App    2.055887    43App    2.069905
      81Ap     2.117002    82Ap     2.138430    44App    2.162684
      45App    2.178678    83Ap     2.191136    84Ap     2.207150
      46App    2.243485    85Ap     2.281998    47App    2.321018
      86Ap     2.321618    48App    2.325977    87Ap     2.345612
      49App    2.404341    88Ap     2.420732    89Ap     2.448021
      90Ap     2.524622    91Ap     2.595989    50App    2.642308
      51App    2.657960    92Ap     2.705500    93Ap     2.705629
      94Ap     2.800253    95Ap     3.610578    96Ap     3.765853
      97Ap     4.998365    98Ap     5.353949    99Ap     5.708577

    Beta Occupied:

       1Ap   -89.192697     2Ap   -89.086516     3Ap   -89.086513
       4Ap    -8.192052     5Ap    -8.095603     6Ap    -8.095592
       7Ap    -6.139642     1App   -6.139532     8Ap    -6.134834
       9Ap    -6.044855    10Ap    -6.044853     2App   -6.042225
       3App   -6.042224    11Ap    -6.035545    12Ap    -6.035544
      13Ap    -0.992504    14Ap    -0.844552    15Ap    -0.682676
      16Ap    -0.518589    17Ap    -0.501239     4App   -0.495027
       5App   -0.356734    18Ap    -0.349487    19Ap    -0.348750

    Beta Virtual:

       6App   -0.103143    20Ap     0.026153    21Ap     0.052778
      22Ap     0.068909    23Ap     0.080667     7App    0.088090
      24Ap     0.090977    25Ap     0.106406    26Ap     0.110137
       8App    0.113384    27Ap     0.118497     9App    0.118801
      28Ap     0.140558    29Ap     0.185404    10App    0.188354
      30Ap     0.206123    11App    0.208843    31Ap     0.214708
      32Ap     0.258824    33Ap     0.280116    34Ap     0.284463
      12App    0.294413    35Ap     0.295428    13App    0.300258
      14App    0.352501    36Ap     0.364941    37Ap     0.372046
      15App    0.400647    38Ap     0.402513    39Ap     0.422526
      16App    0.442553    40Ap     0.479974    17App    0.514495
      41Ap     0.535530    42Ap     0.548701    18App    0.550538
      43Ap     0.554906    44Ap     0.561521    19App    0.572191
      20App    0.572818    45Ap     0.575449    46Ap     0.584159
      47Ap     0.613295    21App    0.625592    48Ap     0.637529
      49Ap     0.643514    22App    0.645077    50Ap     0.662347
      51Ap     0.681035    52Ap     0.701467    23App    0.704853
      24App    0.744950    53Ap     0.755875    25App    0.762846
      54Ap     0.811809    26App    0.812128    55Ap     0.814720
      27App    0.822504    56Ap     0.864631    57Ap     0.899596
      58Ap     0.902410    59Ap     0.994523    28App    0.999996
      29App    1.011525    60Ap     1.044884    30App    1.067720
      61Ap     1.079698    31App    1.145262    62Ap     1.153851
      63Ap     1.186741    64Ap     1.195788    32App    1.228613
      33App    1.237398    65Ap     1.237584    66Ap     1.332376
      67Ap     1.358987    68Ap     1.438772    69Ap     1.488867
      70Ap     1.774001    34App    1.778324    35App    1.809172
      71Ap     1.820611    72Ap     1.849186    36App    1.850938
      73Ap     1.862840    37App    1.862959    74Ap     1.895120
      38App    1.917475    75Ap     1.936389    76Ap     1.968757
      77Ap     1.971352    39App    1.985823    78Ap     1.994835
      40App    2.015974    79Ap     2.019165    41App    2.045011
      80Ap     2.047081    42App    2.055887    43App    2.069905
      81Ap     2.117002    82Ap     2.138430    44App    2.162684
      45App    2.178678    83Ap     2.191136    84Ap     2.207150
      46App    2.243485    85Ap     2.281998    47App    2.321018
      86Ap     2.321618    48App    2.325977    87Ap     2.345612
      49App    2.404341    88Ap     2.420732    89Ap     2.448021
      90Ap     2.524622    91Ap     2.595989    50App    2.642308
      51App    2.657960    92Ap     2.705500    93Ap     2.705629
      94Ap     2.800253    95Ap     3.610578    96Ap     3.765853
      97Ap     4.998365    98Ap     5.353949    99Ap     5.708577

    Final Occupation by Irrep:
             Ap   App
    DOCC [    19,    5 ]
    SOCC [     0,    0 ]

  @DF-UKS Final Energy: -1194.59206374941959

   => Energetics <=

    Nuclear Repulsion Energy =            183.3785009752413373
    One-Electron Energy =               -2014.2217302399640175
    Two-Electron Energy =                 692.5142930201673153
    DFT Exchange-Correlation Energy =     -56.2629306315916082
    Empirical Dispersion Energy =          -0.0001968732726692
    VV10 Nonlocal Energy =                  0.0000000000000000
    Total Energy =                      -1194.5920637494195944

  UHF NO Occupations:
  HONO-2 :   17 Ap 2.0000000
  HONO-1 :   18 Ap 2.0000000
  HONO-0 :   19 Ap 2.0000000
  LUNO+0 :   20 Ap 0.0000000
  LUNO+1 :   21 Ap 0.0000000
  LUNO+2 :   22 Ap 0.0000000
  LUNO+3 :   23 Ap 0.0000000

Computation Completed

Properties will be evaluated at   0.000000,   0.000000,   0.000000 [a0]

Properties computed using the SCF density matrix

  Nuclear Dipole Moment: [e a0]
     X:     0.0000      Y:    -0.0000      Z:     0.0000

  Electronic Dipole Moment: [e a0]
     X:     0.1895      Y:     0.1156      Z:     0.0000

  Dipole Moment: [e a0]
     X:     0.1895      Y:     0.1156      Z:     0.0000     Total:     0.2220

  Dipole Moment: [D]
     X:     0.4817      Y:     0.2938      Z:     0.0000     Total:     0.5642

*** tstop() called on c2-18.compute.lan at Tue Feb  2 15:14:18 2021
Module time:
	user time   =      74.93 seconds =       1.25 minutes
	system time =       0.32 seconds =       0.01 minutes
	total time  =         90 seconds =       1.50 minutes
Total time:
	user time   =    1433.19 seconds =      23.89 minutes
	system time =      64.41 seconds =       1.07 minutes
	total time  =       2072 seconds =      34.53 minutes

*** tstart() called on c2-18.compute.lan
*** at Tue Feb  2 15:14:18 2021

         ------------------------------------------------------------
                                   SCF GRAD
                          Rob Parrish, Justin Turney,
                       Andy Simmonett, and Alex Sokolov
         ------------------------------------------------------------

  ==> Geometry <==

    Molecular point group: cs
    Full point group: Cs

    Geometry (in Angstrom), charge = 0, multiplicity = 1:

       Center              X                  Y                   Z               Mass
    ------------   -----------------  -----------------  -----------------  -----------------
         S            0.565976245587     0.345164334491     0.000000000000    31.972071174400
         S            0.566148524973    -1.564936647748     0.000000000000    31.972071174400
         S           -1.132124770560     1.219772313257     0.000000000000    31.972071174400

  Nuclear repulsion =  183.378500975241337

  ==> Basis Set <==

  Basis Set: AUG-CC-PVTZ
    Blend: AUG-CC-PVTZ
    Number of shells: 48
    Number of basis function: 150
    Number of Cartesian functions: 177
    Spherical Harmonics?: true
    Max angular momentum: 3

  ==> DFJKGrad: Density-Fitted SCF Gradients <==

    Gradient:                    1
    J tasked:                  Yes
    K tasked:                  Yes
    wK tasked:                 Yes
    Omega:               2.000E-01
    OpenMP threads:              1
    Integrals threads:           1
    Memory [MiB]:             7152
    Schwarz Cutoff:          0E+00
    Fitting Condition:       1E-10

   => Auxiliary Basis Set <=

  Basis Set: (AUG-CC-PVTZ AUX)
    Blend: AUG-CC-PVTZ-JKFIT
    Number of shells: 126
    Number of basis function: 438
    Number of Cartesian functions: 540
    Spherical Harmonics?: true
    Max angular momentum: 4

  ==> DFT Potential <==

   => Composite Functional: WB97X-D <=

    wB97X-D Hyb-GGA Exchange-Correlation Functional

    J.-D. Chai and M. Head-Gordon, Phys. Chem. Chem. Phys. 10, 6615 (2008)

    Deriv               =              1
    GGA                 =           TRUE
    Meta                =          FALSE

    Exchange Hybrid     =           TRUE
    MP2 Hybrid          =          FALSE

   => Exchange-Correlation Functionals <=

    1.0000   wB97D range-separated functional

   => Exact (HF) Exchange <=

    0.7780            HF,LR [omega = 0.2000]
    0.2220               HF

   => Molecular Quadrature <=

    Radial Scheme          =       TREUTLER
    Pruning Scheme         =           NONE
    Nuclear Scheme         =       TREUTLER

    BS radius alpha        =              1
    Pruning alpha          =              1
    Radial Points          =             99
    Spherical Points       =            590
    Total Points           =         169877
    Total Blocks           =           1388
    Max Points             =            256
    Max Functions          =            150
    Weights Tolerance      =       1.00E-15

  -Total Gradient:
     Atom            X                  Y                   Z
    ------   -----------------  -----------------  -----------------
       1        0.000101107228     0.000061336172     0.000000000000
       2        0.000005534286    -0.000179134014     0.000000000000
       3       -0.000156974349     0.000087101949     0.000000000000

*** tstop() called on c2-18.compute.lan at Tue Feb  2 15:14:45 2021
Module time:
	user time   =      19.44 seconds =       0.32 minutes
	system time =       0.09 seconds =       0.00 minutes
	total time  =         27 seconds =       0.45 minutes
Total time:
	user time   =    1452.63 seconds =      24.21 minutes
	system time =      64.50 seconds =       1.07 minutes
	total time  =       2099 seconds =      34.98 minutes

         ----------------------------------------------------------
                                   FINDIF
                     R. A. King and Jonathon Misiewicz
         ---------------------------------------------------------

  Computing second-derivative from gradients using projected,
  symmetry-adapted, cartesian coordinates.

  7 gradients passed in, including the reference geometry.
  Generating complete list of displacements from unique ones.

-------------------------------------------------------------

  ==> Harmonic Vibrational Analysis <==

  non-mass-weighted Hessian:       Symmetric? True   Hermitian? True   Lin Dep Dim?  6 (0)
  projection of translations (True) and rotations (True) removed 6 degrees of freedom (6)
  total projector:                 Symmetric? True   Hermitian? True   Lin Dep Dim?  6 (6)
  mass-weighted Hessian:           Symmetric? True   Hermitian? True   Lin Dep Dim?  6 (0)
  pre-proj  low-frequency mode:    0.0000i [cm^-1]
  pre-proj  low-frequency mode:    0.0000i [cm^-1]
  pre-proj  low-frequency mode:    0.0000  [cm^-1]
  pre-proj  low-frequency mode:    0.0000  [cm^-1]
  pre-proj  low-frequency mode:    0.0000  [cm^-1]
  pre-proj  low-frequency mode:    0.0000  [cm^-1]
  pre-proj  all modes:['0.0000i' '0.0000i' '0.0000' '0.0000' '0.0000' '0.0000' '271.7045'
 '628.7522' '725.2408']
  projected mass-weighted Hessian: Symmetric? True   Hermitian? True   Lin Dep Dim?  6 (6)
  post-proj low-frequency mode:    0.0000i [cm^-1] (TR)
  post-proj low-frequency mode:    0.0000i [cm^-1] (TR)
  post-proj low-frequency mode:    0.0000i [cm^-1] (TR)
  post-proj low-frequency mode:    0.0000i [cm^-1] (TR)
  post-proj low-frequency mode:    0.0000  [cm^-1] (TR)
  post-proj low-frequency mode:    0.0000  [cm^-1] (TR)
  post-proj  all modes:['0.0000i' '0.0000i' '0.0000i' '0.0000i' '0.0000' '0.0000' '271.7045'
 '628.7522' '725.2408']

  Vibration                       7                   8                   9
  Freq [cm^-1]                 271.7045            628.7522            725.2408
  Irrep                           Ap                  Ap                  Ap
  Reduced mass [u]             31.9721             31.9721             31.9721
  Force const [mDyne/A]         1.3906              7.4470              9.9080
  Turning point v=0 [a0]        0.1177              0.0774              0.0721
  RMS dev v=0 [a0 u^1/2]        0.4707              0.3094              0.2881
  Char temp [K]                390.9223            904.6345           1043.4601
  ----------------------------------------------------------------------------------
      1   S               -0.45 -0.27  0.00   -0.53 -0.33  0.00   -0.40  0.66  0.00
      2   S                0.51 -0.33 -0.00    0.03  0.55 -0.00   -0.00 -0.45 -0.00
      3   S               -0.06  0.60 -0.00    0.50 -0.22 -0.00    0.40 -0.21 -0.00

  ==> Thermochemistry Components <==

  Entropy, S
    Electronic S            0.000 [cal/(mol K)]        0.000 [J/(mol K)]       0.00000000 [mEh/K] (multiplicity = 1)
    Translational S        39.594 [cal/(mol K)]      165.660 [J/(mol K)]       0.06309659 [mEh/K] (mol. weight = 95.9162 [u], P = 101325.00 [Pa])
    Rotational S           24.948 [cal/(mol K)]      104.381 [J/(mol K)]       0.03975671 [mEh/K] (symmetry no. = 1)
    Vibrational S           2.266 [cal/(mol K)]        9.480 [J/(mol K)]       0.00361055 [mEh/K]
  Total S                  66.807 [cal/(mol K)]      279.521 [J/(mol K)]       0.10646385 [mEh/K]
  Correction S              0.000 [cal/(mol K)]        0.000 [J/(mol K)]       0.00000000 [mEh/K]

  Constant volume heat capacity, Cv
    Electronic Cv           0.000 [cal/(mol K)]        0.000 [J/(mol K)]       0.00000000 [mEh/K]
    Translational Cv        2.981 [cal/(mol K)]       12.472 [J/(mol K)]       0.00475022 [mEh/K]
    Rotational Cv           2.981 [cal/(mol K)]       12.472 [J/(mol K)]       0.00475022 [mEh/K]
    Vibrational Cv          3.479 [cal/(mol K)]       14.554 [J/(mol K)]       0.00554344 [mEh/K]
  Total Cv                  9.440 [cal/(mol K)]       39.498 [J/(mol K)]       0.01504387 [mEh/K]
  Correction Cv             0.000 [cal/(mol K)]        0.000 [J/(mol K)]       0.00000000 [mEh/K]

  Constant pressure heat capacity, Cp
    Electronic Cp           0.000 [cal/(mol K)]        0.000 [J/(mol K)]       0.00000000 [mEh/K]
    Translational Cp        4.968 [cal/(mol K)]       20.786 [J/(mol K)]       0.00791703 [mEh/K]
    Rotational Cp           2.981 [cal/(mol K)]       12.472 [J/(mol K)]       0.00475022 [mEh/K]
    Vibrational Cp          3.479 [cal/(mol K)]       14.554 [J/(mol K)]       0.00554344 [mEh/K]
  Total Cp                 11.427 [cal/(mol K)]       47.812 [J/(mol K)]       0.01821068 [mEh/K]
  Correction Cp             0.000 [cal/(mol K)]        0.000 [J/(mol K)]       0.00000000 [mEh/K]

  ==> Thermochemistry Energy Analysis <==

  Raw electronic energy, E0
  Total E0, Electronic energy at well bottom at 0 [K]                -1194.59206380 [Eh]

  Zero-point energy, ZPE_vib = Sum_i nu_i / 2
    Electronic ZPE          0.000 [kcal/mol]        0.000 [kJ/mol]       0.00000000 [Eh]
    Translational ZPE       0.000 [kcal/mol]        0.000 [kJ/mol]       0.00000000 [Eh]
    Rotational ZPE          0.000 [kcal/mol]        0.000 [kJ/mol]       0.00000000 [Eh]
    Vibrational ZPE         2.324 [kcal/mol]        9.724 [kJ/mol]       0.00370361 [Eh]         812.849 [cm^-1]
  Correction ZPE            2.324 [kcal/mol]        9.724 [kJ/mol]       0.00370361 [Eh]         812.849 [cm^-1]
  Total ZPE, Electronic energy at 0 [K]                              -1194.58836018 [Eh]

  Thermal Energy, E (includes ZPE)
    Electronic E            0.000 [kcal/mol]        0.000 [kJ/mol]       0.00000000 [Eh]
    Translational E         0.889 [kcal/mol]        3.718 [kJ/mol]       0.00141628 [Eh]
    Rotational E            0.889 [kcal/mol]        3.718 [kJ/mol]       0.00141628 [Eh]
    Vibrational E           2.766 [kcal/mol]       11.573 [kJ/mol]       0.00440807 [Eh]
  Correction E              4.544 [kcal/mol]       19.010 [kJ/mol]       0.00724063 [Eh]
  Total E, Electronic energy at  298.15 [K]                          -1194.58482317 [Eh]

  Enthalpy, H_trans = E_trans + k_B * T
    Electronic H            0.000 [kcal/mol]        0.000 [kJ/mol]       0.00000000 [Eh]
    Translational H         1.481 [kcal/mol]        6.197 [kJ/mol]       0.00236046 [Eh]
    Rotational H            0.889 [kcal/mol]        3.718 [kJ/mol]       0.00141628 [Eh]
    Vibrational H           2.766 [kcal/mol]       11.573 [kJ/mol]       0.00440807 [Eh]
  Correction H              5.136 [kcal/mol]       21.489 [kJ/mol]       0.00818481 [Eh]
  Total H, Enthalpy at  298.15 [K]                                   -1194.58387898 [Eh]

  Gibbs free energy, G = H - T * S
    Electronic G            0.000 [kcal/mol]        0.000 [kJ/mol]       0.00000000 [Eh]
    Translational G       -10.324 [kcal/mol]      -43.194 [kJ/mol]      -0.01645179 [Eh]
    Rotational G           -6.549 [kcal/mol]      -27.403 [kJ/mol]      -0.01043719 [Eh]
    Vibrational G           2.091 [kcal/mol]        8.747 [kJ/mol]       0.00333159 [Eh]
  Correction G            -14.782 [kcal/mol]      -61.850 [kJ/mol]      -0.02355738 [Eh]
  Total G, Free enthalpy at  298.15 [K]                              -1194.61562118 [Eh]

*** Psi4 exiting successfully. Buy a developer a beer!
