                               Psi4 1.4a2.dev191

  ==> Input File <==

--------------------------------------------------------------------------
memory 10 GB

molecule  {
-2 3
S
S 1 r1
S 1 r2 2 a1
r1 = 2.0
r2 = 2.1
a1 = 120.0
}

set {
reference uks
basis aug-cc-pvtz
g_convergence gau_verytight
dft_spherical_points 590
dft_radial_points 99
}

optimize('wb97m-v')
frequencies('wb97m-v')

--------------------------------------------------------------------------

    Molecular point group: cs
  Charge       = -2
  Multiplicity = 3
  Basis Set: AUG-CC-PVTZ
    Blend: AUG-CC-PVTZ
  Basis Set: (AUG-CC-PVTZ AUX)
    Blend: AUG-CC-PVTZ-JKFIT
  @DF-UKS Final Energy: -1194.47531035927432
    Total Energy =                      -1194.4753103592743173
    Molecular point group: cs
  Basis Set: AUG-CC-PVTZ
    Blend: AUG-CC-PVTZ
  Basis Set: (AUG-CC-PVTZ AUX)
    Blend: AUG-CC-PVTZ-JKFIT
  @DF-UKS Final Energy: -1194.47530813901085
    Total Energy =                      -1194.4753081390110765
  Basis Set: AUG-CC-PVTZ
    Blend: AUG-CC-PVTZ
  Basis Set: (AUG-CC-PVTZ AUX)
    Blend: AUG-CC-PVTZ-JKFIT
  @DF-UKS Final Energy: -1194.47531247540837
    Total Energy =                      -1194.4753124754083728
  Basis Set: AUG-CC-PVTZ
    Blend: AUG-CC-PVTZ
  Basis Set: (AUG-CC-PVTZ AUX)
    Blend: AUG-CC-PVTZ-JKFIT
  @DF-UKS Final Energy: -1194.47528789360467
    Total Energy =                      -1194.4752878936046727
  @DF-UKS Final Energy: -1194.47533258993190
    Total Energy =                      -1194.4753325899318952
  @DF-UKS Final Energy: -1194.47530414652510
    Total Energy =                      -1194.4753041465251044
  @DF-UKS Final Energy: -1194.47531653669148
    Total Energy =                      -1194.4753165366912526
  @DF-UKS Final Energy: -1194.47618736781624
    Total Energy =                      -1194.4761873678164648
  @DF-UKS Final Energy: -1194.47618954534551
    Total Energy =                      -1194.4761895453455054
  @DF-UKS Final Energy: -1194.47618508337609
    Total Energy =                      -1194.4761850833763219
  @DF-UKS Final Energy: -1194.47617526590557
    Total Energy =                      -1194.4761752659057947
  @DF-UKS Final Energy: -1194.47619927162123
    Total Energy =                      -1194.4761992716212262
  @DF-UKS Final Energy: -1194.47618605642356
    Total Energy =                      -1194.4761860564235576
  @DF-UKS Final Energy: -1194.47618864742071
    Total Energy =                      -1194.4761886474204857
  @DF-UKS Final Energy: -1194.47656536581235
    Total Energy =                      -1194.4765653658123483
  @DF-UKS Final Energy: -1194.47656946234974
    Total Energy =                      -1194.4765694623497438
  @DF-UKS Final Energy: -1194.47656114384199
    Total Energy =                      -1194.4765611438419910
  @DF-UKS Final Energy: -1194.47656246677343
    Total Energy =                      -1194.4765624667734301
  @DF-UKS Final Energy: -1194.47656809438377
    Total Energy =                      -1194.4765680943835378
  @DF-UKS Final Energy: -1194.47656705954614
    Total Energy =                      -1194.4765670595461415
  **** Optimization is complete! (in 10 steps) ****
    Final optimized geometry and variables:
  @DF-UKS Final Energy: -1194.47667930560033
    Total Energy =                      -1194.4766793056003280
  @DF-UKS Final Energy: -1194.47667922504161
    Total Energy =                      -1194.4766792250416074
  @DF-UKS Final Energy: -1194.47667922621804
    Total Energy =                      -1194.4766792262180388
  @DF-UKS Final Energy: -1194.47667921603943
    Total Energy =                      -1194.4766792160396562
  @DF-UKS Final Energy: -1194.47667921662423
    Total Energy =                      -1194.4766792166242340
  @DF-UKS Final Energy: -1194.47667928097417
    Total Energy =                      -1194.4766792809741673
  @DF-UKS Final Energy: -1194.47667928323176
    Total Energy =                      -1194.4766792832317606
  @DF-UKS Final Energy: -1194.47667930560578
    Total Energy =                      -1194.4766793056057850
  @DF-UKS Final Energy: -1194.47667922507844
    Total Energy =                      -1194.4766792250784420
  @DF-UKS Final Energy: -1194.47667922625578
    Total Energy =                      -1194.4766792262560102
  @DF-UKS Final Energy: -1194.47667921606626
    Total Energy =                      -1194.4766792160664863
  @DF-UKS Final Energy: -1194.47667921664970
    Total Energy =                      -1194.4766792166499272
  @DF-UKS Final Energy: -1194.47667928098258
    Total Energy =                      -1194.4766792809825802
  @DF-UKS Final Energy: -1194.47667928323608
    Total Energy =                      -1194.4766792832360807
  @DF-UKS Final Energy: -1194.47667915810689
    Total Energy =                      -1194.4766791581068901
  @DF-UKS Final Energy: -1194.47667915563170
    Total Energy =                      -1194.4766791556314729
  Basis Set: AUG-CC-PVTZ
    Blend: AUG-CC-PVTZ
  Basis Set: (AUG-CC-PVTZ AUX)
    Blend: AUG-CC-PVTZ-JKFIT
  @DF-UKS Final Energy: -1194.47667914872682
    Total Energy =                      -1194.4766791487265891
  Basis Set: AUG-CC-PVTZ
    Blend: AUG-CC-PVTZ
  Basis Set: (AUG-CC-PVTZ AUX)
    Blend: AUG-CC-PVTZ-JKFIT
  @DF-UKS Final Energy: -1194.47667914632939
    Total Energy =                      -1194.4766791463293885
  Multiplicity = 3
  Basis Set: AUG-CC-PVTZ
    Blend: AUG-CC-PVTZ
  Basis Set: (AUG-CC-PVTZ AUX)
    Blend: AUG-CC-PVTZ-JKFIT
  @DF-UKS Final Energy: -1194.47667915943089
    Total Energy =                      -1194.4766791594308870
    Molecular point group: cs

    Geometry (in Angstrom), charge = -2, multiplicity = 3:

       Center              X                  Y                   Z               Mass
    ------------   -----------------  -----------------  -----------------  -----------------
         S            0.619578796451     0.394309483522     0.000000000000    31.972071174400
         S            0.619483705355    -1.655787401779     0.000000000000    31.972071174400
         S           -1.239062501805     1.261477918258     0.000000000000    31.972071174400

  Charge       = -2
  Multiplicity = 3
  Basis Set: AUG-CC-PVTZ
    Blend: AUG-CC-PVTZ
  Basis Set: (AUG-CC-PVTZ AUX)
    Blend: AUG-CC-PVTZ-JKFIT

    Orbital Energies [Eh]
    ---------------------

    Alpha Occupied:

       1Ap   -88.965597     2Ap   -88.882101     3Ap   -88.882017
       4Ap    -7.871142     5Ap    -7.793645     6Ap    -7.793549
       7Ap    -5.780136     1App   -5.780133     8Ap    -5.776467
       9Ap    -5.704614    10Ap    -5.704524     2App   -5.701304
       3App   -5.701203    11Ap    -5.696602    12Ap    -5.696506
      13Ap    -0.620285    14Ap    -0.492459    15Ap    -0.378984
      16Ap    -0.170928    17Ap    -0.151780     4App   -0.151258
       5App   -0.044619    18Ap    -0.022355    19Ap    -0.019263
       6App    0.020584    20Ap     0.169293

    Alpha Virtual:

      21Ap     0.241548    22Ap     0.286913    23Ap     0.293269
      24Ap     0.302634     7App    0.303788     8App    0.315402
       9App    0.315837    25Ap     0.319923    26Ap     0.323621
      27Ap     0.353024    28Ap     0.360308    29Ap     0.401623
      30Ap     0.431179    10App    0.486386    31Ap     0.501930
      11App    0.508705    32Ap     0.524219    33Ap     0.524263
      34Ap     0.546813    35Ap     0.557660    12App    0.566639
      13App    0.583012    36Ap     0.587662    37Ap     0.591340
      14App    0.597745    38Ap     0.629103    15App    0.646156
      39Ap     0.665039    16App    0.748924    40Ap     0.780557
      41Ap     0.813477    17App    0.822809    42Ap     0.831257
      43Ap     0.839118    44Ap     0.839967    18App    0.857138
      19App    0.857343    45Ap     0.862586    20App    0.868273
      46Ap     0.870951    47Ap     0.888734    21App    0.944074
      48Ap     0.946773    49Ap     0.946950    22App    0.967658
      50Ap     0.971343    51Ap     0.979383    52Ap     0.997951
      23App    1.011018    53Ap     1.048096    24App    1.048476
      25App    1.053180    54Ap     1.104365    55Ap     1.107732
      26App    1.112872    27App    1.116521    56Ap     1.127036
      57Ap     1.157742    58Ap     1.179116    59Ap     1.260360
      28App    1.276797    29App    1.294055    60Ap     1.323603
      61Ap     1.344750    30App    1.346023    31App    1.424447
      62Ap     1.435799    63Ap     1.439539    64Ap     1.462296
      65Ap     1.497915    32App    1.506030    33App    1.509109
      66Ap     1.607441    67Ap     1.609452    68Ap     1.689416
      69Ap     1.786396    70Ap     2.102240    34App    2.116422
      35App    2.139651    71Ap     2.152975    72Ap     2.179845
      36App    2.182946    37App    2.190562    73Ap     2.201555
      74Ap     2.208858    38App    2.259840    75Ap     2.270043
      76Ap     2.302496    39App    2.319034    77Ap     2.319982
      40App    2.322111    78Ap     2.323765    41App    2.340461
      79Ap     2.357975    42App    2.387963    80Ap     2.394447
      43App    2.403720    81Ap     2.451417    82Ap     2.457433
      44App    2.477842    45App    2.490498    83Ap     2.491858
      84Ap     2.505960    46App    2.567180    85Ap     2.577291
      47App    2.587387    48App    2.592126    86Ap     2.601086
      87Ap     2.607343    49App    2.644971    88Ap     2.689437
      89Ap     2.740097    90Ap     2.742850    91Ap     2.772379
      92Ap     2.818989    93Ap     2.876651    50App    2.876872
      51App    2.878825    94Ap     2.993672    95Ap     3.944449
      96Ap     3.990152    97Ap     5.020861    98Ap     5.506722
      99Ap     5.941850

    Beta Occupied:

       1Ap   -88.961976     2Ap   -88.880155     3Ap   -88.880072
       4Ap    -7.867260     5Ap    -7.791615     6Ap    -7.791518
       7Ap    -5.777786     8Ap    -5.773260     1App   -5.768661
       9Ap    -5.702793    10Ap    -5.702699     2App   -5.695081
      11Ap    -5.695074     3App   -5.694985    12Ap    -5.694978
      13Ap    -0.606193    14Ap    -0.481089    15Ap    -0.355636
      16Ap    -0.158935    17Ap    -0.139584     4App   -0.115604
      18Ap    -0.014945    19Ap    -0.010677     5App   -0.001222

    Beta Virtual:

       6App    0.242573    20Ap     0.258073    21Ap     0.264811
      22Ap     0.296336     7App    0.309417    23Ap     0.315367
      24Ap     0.318853     8App    0.321093    25Ap     0.338221
       9App    0.339709    26Ap     0.365784    27Ap     0.370157
      28Ap     0.394394    29Ap     0.442423    30Ap     0.458358
      10App    0.491646    31Ap     0.516038    11App    0.518445
      32Ap     0.552776    33Ap     0.559484    34Ap     0.561723
      35Ap     0.577116    12App    0.580784    13App    0.590765
      14App    0.619313    36Ap     0.621343    37Ap     0.623903
      38Ap     0.650389    15App    0.661762    39Ap     0.689984
      16App    0.759309    40Ap     0.787870    17App    0.832650
      41Ap     0.833120    42Ap     0.852091    43Ap     0.853531
      44Ap     0.860479    18App    0.870215    19App    0.870667
      45Ap     0.872518    20App    0.883228    46Ap     0.893108
      47Ap     0.918018    48Ap     0.954179    21App    0.954984
      49Ap     0.960116    22App    0.976250    50Ap     0.984074
      51Ap     0.997302    52Ap     1.010475    23App    1.026810
      24App    1.060700    53Ap     1.066625    25App    1.074650
      54Ap     1.113067    55Ap     1.113371    26App    1.116549
      27App    1.122644    56Ap     1.149918    57Ap     1.174610
      58Ap     1.186241    59Ap     1.265846    28App    1.282930
      29App    1.303672    60Ap     1.332020    61Ap     1.354062
      30App    1.355658    31App    1.438574    62Ap     1.444923
      63Ap     1.458543    64Ap     1.480756    65Ap     1.515268
      32App    1.519416    33App    1.528595    66Ap     1.623714
      67Ap     1.631602    68Ap     1.716242    69Ap     1.820284
      70Ap     2.125235    34App    2.140724    35App    2.155669
      71Ap     2.170683    72Ap     2.198289    36App    2.200365
      37App    2.207803    73Ap     2.214849    74Ap     2.217449
      75Ap     2.274177    38App    2.287179    76Ap     2.310762
      77Ap     2.328427    78Ap     2.336323    39App    2.336621
      40App    2.346837    41App    2.354381    79Ap     2.367569
      80Ap     2.407572    42App    2.409301    43App    2.430733
      81Ap     2.459956    82Ap     2.466853    44App    2.493140
      83Ap     2.504577    45App    2.505829    84Ap     2.518948
      46App    2.578934    85Ap     2.589094    47App    2.606260
      48App    2.613950    86Ap     2.616093    87Ap     2.616391
      49App    2.665327    88Ap     2.705792    89Ap     2.754090
      90Ap     2.757984    91Ap     2.781525    92Ap     2.829705
      93Ap     2.881560    50App    2.894634    51App    2.902613
      94Ap     2.999701    95Ap     3.955124    96Ap     3.998748
      97Ap     5.036099    98Ap     5.522710    99Ap     5.965423

    Final Occupation by Irrep:
             Ap   App
    DOCC [    19,    5 ]
    SOCC [     1,    1 ]

  @DF-UKS Final Energy: -1194.47667915784587

   => Energetics <=

    Nuclear Repulsion Energy =            171.2948579422348416
    One-Electron Energy =               -2007.1768662323916033
    Two-Electron Energy =                 700.6729527471585470
    DFT Exchange-Correlation Energy =     -59.4700742887665328
    Empirical Dispersion Energy =           0.0000000000000000
    VV10 Nonlocal Energy =                  0.2024506739189418
    Total Energy =                      -1194.4766791578456377

  UHF NO Occupations:
  HONO-2 :    5App 1.9984127
  HONO-1 :    6App 1.0000000
  HONO-0 :   20 Ap 1.0000000
  LUNO+0 :    7App 0.0015873
  LUNO+1 :    8App 0.0007380
  LUNO+2 :   21 Ap 0.0006431
  LUNO+3 :   22 Ap 0.0002594

Computation Completed

Properties will be evaluated at   0.000000,   0.000000,   0.000000 [a0]

Properties computed using the SCF density matrix

  Nuclear Dipole Moment: [e a0]
     X:    -0.0000      Y:     0.0000      Z:     0.0000

  Electronic Dipole Moment: [e a0]
     X:    -0.0082      Y:    -0.0104      Z:     0.0000

  Dipole Moment: [e a0]
     X:    -0.0082      Y:    -0.0104      Z:     0.0000     Total:     0.0133

  Dipole Moment: [D]
     X:    -0.0209      Y:    -0.0265      Z:     0.0000     Total:     0.0337

*** tstop() called on c2-18.compute.lan at Tue Feb  2 22:21:15 2021
Module time:
	user time   =     519.48 seconds =       8.66 minutes
	system time =       1.78 seconds =       0.03 minutes
	total time  =        522 seconds =       8.70 minutes
Total time:
	user time   =   26996.98 seconds =     449.95 minutes
	system time =     170.48 seconds =       2.84 minutes
	total time  =      27688 seconds =     461.47 minutes

         ----------------------------------------------------------
                                   FINDIF
                     R. A. King and Jonathon Misiewicz
         ---------------------------------------------------------

  Computing second-derivative from energies using projected,
  symmetry-adapted, cartesian coordinates.

  13 energies passed in, including the reference geometry.
    Using 3-point formula.
    Energy without displacement: -1194.4766793056
    Check energies below for precision!
    0: -1        :     -1194.4766792251
    0: 1         :     -1194.4766792263
    1: -1        :     -1194.4766792161
    1: 1         :     -1194.4766792166
    2: -1        :     -1194.4766792810
    2: 1         :     -1194.4766792832
    0: 1, 1: 1   :     -1194.4766791581
    0: -1, 1: -1 :     -1194.4766791556
    0: 1, 2: 1   :     -1194.4766791487
    0: -1, 2: -1 :     -1194.4766791463
    1: 1, 2: 1   :     -1194.4766791594
    1: -1, 2: -1 :     -1194.4766791578

-------------------------------------------------------------

  ==> Harmonic Vibrational Analysis <==

  non-mass-weighted Hessian:       Symmetric? True   Hermitian? True   Lin Dep Dim?  6 (0)
  projection of translations (True) and rotations (True) removed 6 degrees of freedom (6)
  total projector:                 Symmetric? True   Hermitian? True   Lin Dep Dim?  6 (6)
  mass-weighted Hessian:           Symmetric? True   Hermitian? True   Lin Dep Dim?  6 (0)
  pre-proj  low-frequency mode:    0.0000i [cm^-1]
  pre-proj  low-frequency mode:    0.0000i [cm^-1]
  pre-proj  low-frequency mode:    0.0000i [cm^-1]
  pre-proj  low-frequency mode:    0.0000  [cm^-1]
  pre-proj  low-frequency mode:    0.0000  [cm^-1]
  pre-proj  low-frequency mode:    0.0000  [cm^-1]
  pre-proj  all modes:['0.0000i' '0.0000i' '0.0000i' '0.0000' '0.0000' '0.0000' '127.3760'
 '434.1793' '450.0996']
  projected mass-weighted Hessian: Symmetric? True   Hermitian? True   Lin Dep Dim?  6 (6)
  post-proj low-frequency mode:    0.0000i [cm^-1] (TR)
  post-proj low-frequency mode:    0.0000i [cm^-1] (TR)
  post-proj low-frequency mode:    0.0000i [cm^-1] (TR)
  post-proj low-frequency mode:    0.0000i [cm^-1] (TR)
  post-proj low-frequency mode:    0.0000  [cm^-1] (TR)
  post-proj low-frequency mode:    0.0000  [cm^-1] (TR)
  post-proj  all modes:['0.0000i' '0.0000i' '0.0000i' '0.0000i' '0.0000' '0.0000' '127.3760'
 '434.1793' '450.0996']

  Vibration                       7                   8                   9
  Freq [cm^-1]                 127.3760            434.1793            450.0996
  Irrep                           Ap                  Ap                  Ap
  Reduced mass [u]             31.9721             31.9721             31.9721
  Force const [mDyne/A]         0.3056              3.5511              3.8163
  Turning point v=0 [a0]        0.1719              0.0931              0.0915
  RMS dev v=0 [a0 u^1/2]        0.6875              0.3724              0.3657
  Char temp [K]                183.2657            624.6873            647.5931
  ----------------------------------------------------------------------------------
      1   S               -0.30 -0.20  0.00    0.59  0.43 -0.00   -0.45  0.62  0.00
      2   S                0.49 -0.43 -0.00   -0.14 -0.48 -0.00    0.01 -0.43  0.00
      3   S               -0.19  0.63 -0.00   -0.45  0.06 -0.00    0.44 -0.19  0.00

  ==> Thermochemistry Components <==

  Entropy, S
    Electronic S            2.183 [cal/(mol K)]        9.134 [J/(mol K)]       0.00347910 [mEh/K] (multiplicity = 3)
    Translational S        39.594 [cal/(mol K)]      165.660 [J/(mol K)]       0.06309659 [mEh/K] (mol. weight = 95.9162 [u], P = 101325.00 [Pa])
    Rotational S           25.397 [cal/(mol K)]      106.260 [J/(mol K)]       0.04047212 [mEh/K] (symmetry no. = 1)
    Vibrational S           4.626 [cal/(mol K)]       19.355 [J/(mol K)]       0.00737179 [mEh/K]
  Total S                  71.799 [cal/(mol K)]      300.409 [J/(mol K)]       0.11441959 [mEh/K]
  Correction S              0.000 [cal/(mol K)]        0.000 [J/(mol K)]       0.00000000 [mEh/K]

  Constant volume heat capacity, Cv
    Electronic Cv           0.000 [cal/(mol K)]        0.000 [J/(mol K)]       0.00000000 [mEh/K]
    Translational Cv        2.981 [cal/(mol K)]       12.472 [J/(mol K)]       0.00475022 [mEh/K]
    Rotational Cv           2.981 [cal/(mol K)]       12.472 [J/(mol K)]       0.00475022 [mEh/K]
    Vibrational Cv          4.682 [cal/(mol K)]       19.590 [J/(mol K)]       0.00746157 [mEh/K]
  Total Cv                 10.644 [cal/(mol K)]       44.534 [J/(mol K)]       0.01696200 [mEh/K]
  Correction Cv             0.000 [cal/(mol K)]        0.000 [J/(mol K)]       0.00000000 [mEh/K]

  Constant pressure heat capacity, Cp
    Electronic Cp           0.000 [cal/(mol K)]        0.000 [J/(mol K)]       0.00000000 [mEh/K]
    Translational Cp        4.968 [cal/(mol K)]       20.786 [J/(mol K)]       0.00791703 [mEh/K]
    Rotational Cp           2.981 [cal/(mol K)]       12.472 [J/(mol K)]       0.00475022 [mEh/K]
    Vibrational Cp          4.682 [cal/(mol K)]       19.590 [J/(mol K)]       0.00746157 [mEh/K]
  Total Cp                 12.631 [cal/(mol K)]       52.848 [J/(mol K)]       0.02012881 [mEh/K]
  Correction Cp             0.000 [cal/(mol K)]        0.000 [J/(mol K)]       0.00000000 [mEh/K]

  ==> Thermochemistry Energy Analysis <==

  Raw electronic energy, E0
  Total E0, Electronic energy at well bottom at 0 [K]                -1194.47667931 [Eh]

  Zero-point energy, ZPE_vib = Sum_i nu_i / 2
    Electronic ZPE          0.000 [kcal/mol]        0.000 [kJ/mol]       0.00000000 [Eh]
    Translational ZPE       0.000 [kcal/mol]        0.000 [kJ/mol]       0.00000000 [Eh]
    Rotational ZPE          0.000 [kcal/mol]        0.000 [kJ/mol]       0.00000000 [Eh]
    Vibrational ZPE         1.446 [kcal/mol]        6.051 [kJ/mol]       0.00230472 [Eh]         505.827 [cm^-1]
  Correction ZPE            1.446 [kcal/mol]        6.051 [kJ/mol]       0.00230472 [Eh]         505.827 [cm^-1]
  Total ZPE, Electronic energy at 0 [K]                              -1194.47437459 [Eh]

  Thermal Energy, E (includes ZPE)
    Electronic E            0.000 [kcal/mol]        0.000 [kJ/mol]       0.00000000 [Eh]
    Translational E         0.889 [kcal/mol]        3.718 [kJ/mol]       0.00141628 [Eh]
    Rotational E            0.889 [kcal/mol]        3.718 [kJ/mol]       0.00141628 [Eh]
    Vibrational E           2.215 [kcal/mol]        9.267 [kJ/mol]       0.00352956 [Eh]
  Correction E              3.992 [kcal/mol]       16.704 [kJ/mol]       0.00636211 [Eh]
  Total E, Electronic energy at  298.15 [K]                          -1194.47031719 [Eh]

  Enthalpy, H_trans = E_trans + k_B * T
    Electronic H            0.000 [kcal/mol]        0.000 [kJ/mol]       0.00000000 [Eh]
    Translational H         1.481 [kcal/mol]        6.197 [kJ/mol]       0.00236046 [Eh]
    Rotational H            0.889 [kcal/mol]        3.718 [kJ/mol]       0.00141628 [Eh]
    Vibrational H           2.215 [kcal/mol]        9.267 [kJ/mol]       0.00352956 [Eh]
  Correction H              4.585 [kcal/mol]       19.183 [kJ/mol]       0.00730630 [Eh]
  Total H, Enthalpy at  298.15 [K]                                   -1194.46937301 [Eh]

  Gibbs free energy, G = H - T * S
    Electronic G           -0.651 [kcal/mol]       -2.723 [kJ/mol]      -0.00103729 [Eh]
    Translational G       -10.324 [kcal/mol]      -43.194 [kJ/mol]      -0.01645179 [Eh]
    Rotational G           -6.683 [kcal/mol]      -27.963 [kJ/mol]      -0.01065049 [Eh]
    Vibrational G           0.836 [kcal/mol]        3.496 [kJ/mol]       0.00133166 [Eh]
  Correction G            -16.822 [kcal/mol]      -70.384 [kJ/mol]      -0.02680790 [Eh]
  Total G, Free enthalpy at  298.15 [K]                              -1194.50348721 [Eh]

    Psi4 stopped on: Tuesday, 02 February 2021 10:21PM
    Psi4 wall time for execution: 7:41:29.04

*** Psi4 exiting successfully. Buy a developer a beer!
