                               Psi4 1.4a2.dev191

  ==> Input File <==

--------------------------------------------------------------------------
memory 10 GB
molecule {
0 3
S
S 1 r1
r1 = 1.8929602578
}
set {
basis aug-cc-pvtz
reference uks
dft_spherical_points 590
dft_radial_points 99
}

energy("wb97m-v")

--------------------------------------------------------------------------

    Molecular point group: d2h

    Geometry (in Angstrom), charge = 0, multiplicity = 3:

       Center              X                  Y                   Z               Mass
    ------------   -----------------  -----------------  -----------------  -----------------
         S            0.000000000000     0.000000000000    -0.946480128900    31.972071174400
         S            0.000000000000     0.000000000000     0.946480128900    31.972071174400

  Charge       = 0
  Multiplicity = 3
  Basis Set: AUG-CC-PVTZ
    Blend: AUG-CC-PVTZ
  Basis Set: (AUG-CC-PVTZ AUX)
    Blend: AUG-CC-PVTZ-JKFIT

    Orbital Energies [Eh]
    ---------------------

    Alpha Occupied:

       1B1u  -89.261680     1Ag   -89.261678     2Ag    -8.172892
       2B1u   -8.172731     1B2u   -6.082016     1B3u   -6.082016
       1B3g   -6.081970     1B2g   -6.081970     3Ag    -6.080472
       3B1u   -6.079732     4Ag    -0.961940     4B1u   -0.746175
       5Ag    -0.495508     2B3u   -0.479524     2B2u   -0.479524
       2B2g   -0.333089     2B3g   -0.333089

    Alpha Virtual:

       5B1u    0.028607     6Ag     0.065425     3B2u    0.066983
       3B3u    0.066983     7Ag     0.082999     3B2g    0.095366
       3B3g    0.095366     6B1u    0.099182     8Ag     0.183717
       1B1g    0.183717     7B1u    0.196053     4B2u    0.235069
       4B3u    0.235069     9Ag     0.270804     1Au     0.293061
       8B1u    0.293062     4B2g    0.357681     4B3g    0.357681
       9B1u    0.360552     5B3u    0.448298     5B2u    0.448298
       6B2u    0.542327     6B3u    0.542327    10Ag     0.544153
      10B1u    0.547685    11Ag     0.555670    12Ag     0.560706
       2B1g    0.560707     5B3g    0.566784     5B2g    0.566784
       2Au     0.651171    11B1u    0.651174    13Ag     0.670145
       7B2u    0.700177     7B3u    0.700177     6B2g    0.744427
       6B3g    0.744427     3B1g    0.779158    14Ag     0.779165
       7B3g    0.851928     7B2g    0.851928    12B1u    0.869467
       8B3u    1.018300     8B2u    1.018300    13B1u    1.049489
       3Au     1.049496    14B1u    1.090782     8B2g    1.210941
       8B3g    1.210941    15Ag     1.292479    15B1u    1.408868
       4B1g    1.739343    16Ag     1.739350     9B2u    1.787195
       9B3u    1.787195    16B1u    1.798073     4Au     1.817094
      17B1u    1.817099     9B3g    1.910866     9B2g    1.910866
      17Ag     1.912588     5B1g    1.999442    18Ag     1.999446
      19Ag     2.016422    10B3u    2.021065    10B2u    2.021065
      11B3u    2.065736    11B2u    2.065736    12B3u    2.068848
      12B2u    2.068848    10B2g    2.139869    10B3g    2.139869
      18B1u    2.306403     5Au     2.306404    11B2g    2.348382
      11B3g    2.348382    19B1u    2.456742    12B3g    2.647214
      12B2g    2.647214    20Ag     2.678628    20B1u    3.631742
      21Ag     4.645173    21B1u    5.393824

    Beta Occupied:

       1B1u  -89.255449     1Ag   -89.255448     2Ag    -8.166689
       2B1u   -8.166456     3Ag    -6.076599     3B1u   -6.075860
       1B2u   -6.068601     1B3u   -6.068601     1B3g   -6.068542
       1B2g   -6.068542     4Ag    -0.936319     4B1u   -0.690505
       5Ag    -0.469788     2B3u   -0.423369     2B2u   -0.423369

    Beta Virtual:

       2B2g   -0.062282     2B3g   -0.062282     5B1u    0.029242
       6Ag     0.064060     3B3u    0.066212     3B2u    0.066212
       7Ag     0.085645     3B2g    0.096324     3B3g    0.096324
       6B1u    0.114270     8Ag     0.191338     1B1g    0.191338
       7B1u    0.197221     4B2u    0.253148     4B3u    0.253148
       9Ag     0.274792     1Au     0.299959     8B1u    0.299961
       4B2g    0.359518     4B3g    0.359518     9B1u    0.363101
       5B3u    0.458343     5B2u    0.458343    10Ag     0.547145
      10B1u    0.555905    11Ag     0.561817     6B3u    0.562530
       6B2u    0.562530     5B3g    0.572028     5B2g    0.572028
      12Ag     0.579344     2B1g    0.579345    13Ag     0.686138
       2Au     0.686513    11B1u    0.686517     7B2u    0.705315
       7B3u    0.705315     6B2g    0.765962     6B3g    0.765962
       3B1g    0.791604    14Ag     0.791612     7B3g    0.858411
       7B2g    0.858411    12B1u    0.884901     8B3u    1.024986
       8B2u    1.024986    13B1u    1.055412     3Au     1.055418
      14B1u    1.097399     8B2g    1.224662     8B3g    1.224662
      15Ag     1.323392    15B1u    1.437107     4B1g    1.793955
      16Ag     1.793964     9B2u    1.803625     9B3u    1.803625
      16B1u    1.816822     4Au     1.871737    17B1u    1.871745
      17Ag     1.923108     9B3g    1.959505     9B2g    1.959505
       5B1g    2.028200    18Ag     2.028204    19Ag     2.033242
      10B2u    2.053080    10B3u    2.053080    11B3u    2.117284
      11B2u    2.117284    12B3u    2.119541    12B2u    2.119541
      10B2g    2.190069    10B3g    2.190069    18B1u    2.340269
       5Au     2.340269    11B2g    2.379749    11B3g    2.379749
      19B1u    2.478496    12B3g    2.678194    12B2g    2.678194
      20Ag     2.695809    20B1u    3.641960    21Ag     4.671485
      21B1u    5.416272

    Final Occupation by Irrep:
             Ag   B1g   B2g   B3g    Au   B1u   B2u   B3u
    DOCC [     5,    0,    1,    1,    0,    4,    2,    2 ]
    SOCC [     0,    0,    1,    1,    0,    0,    0,    0 ]

  @DF-UKS Final Energy:  -796.36079177818601

   => Energetics <=

    Nuclear Repulsion Energy =             71.5648230718602889
    One-Electron Energy =               -1241.6834162383233888
    Two-Electron Energy =                 413.1952593264535949
    DFT Exchange-Correlation Energy =     -39.5710371970468984
    Empirical Dispersion Energy =           0.0000000000000000
    VV10 Nonlocal Energy =                  0.1335792588703457
    Total Energy =                       -796.3607917781860124

  UHF NO Occupations:
  HONO-2 :    2B2u 1.9980982
  HONO-1 :    2B2g 1.0000000
  HONO-0 :    2B3g 1.0000000
  LUNO+0 :    3B2u 0.0019018
  LUNO+1 :    3B3u 0.0019018
  LUNO+2 :    5B1u 0.0002590
  LUNO+3 :    6 Ag 0.0002033

Computation Completed

Properties will be evaluated at   0.000000,   0.000000,   0.000000 [a0]

Properties computed using the SCF density matrix

  Nuclear Dipole Moment: [e a0]
     X:     0.0000      Y:     0.0000      Z:     0.0000

  Electronic Dipole Moment: [e a0]
     X:     0.0000      Y:     0.0000      Z:     0.0000

  Dipole Moment: [e a0]
     X:     0.0000      Y:     0.0000      Z:     0.0000     Total:     0.0000

  Dipole Moment: [D]
     X:     0.0000      Y:     0.0000      Z:     0.0000     Total:     0.0000

*** tstop() called on c1-9.compute.lan at Fri Feb  5 11:24:15 2021
Module time:
	user time   =      19.54 seconds =       0.33 minutes
	system time =       0.51 seconds =       0.01 minutes
	total time  =         20 seconds =       0.33 minutes
Total time:
	user time   =      19.54 seconds =       0.33 minutes
	system time =       0.51 seconds =       0.01 minutes
	total time  =         20 seconds =       0.33 minutes

    Psi4 stopped on: Friday, 05 February 2021 11:24AM
    Psi4 wall time for execution: 0:00:20.09

*** Psi4 exiting successfully. Buy a developer a beer!
