                               Psi4 1.4a2.dev191

  ==> Input File <==

--------------------------------------------------------------------------
memory 10 GB

molecule  {
-2 1
S
S 1 R1
S 1 R2 2 A1
R1 = 1.5
R2 = 1.5
A1 = 120.0
}

set {
reference uks
basis aug-cc-pvtz
}

optimize('lrc-wpbeh')
--------------------------------------------------------------------------

    Molecular point group: c2v
  Charge       = -2
  Multiplicity = 1
  Basis Set: AUG-CC-PVTZ
    Blend: AUG-CC-PVTZ
  Basis Set: (AUG-CC-PVTZ AUX)
    Blend: AUG-CC-PVTZ-JKFIT
  @DF-UKS Final Energy: -1193.64173412959053
    Total Energy =                      -1193.6417341295907590
    Molecular point group: c2v
  Basis Set: AUG-CC-PVTZ
    Blend: AUG-CC-PVTZ
  Basis Set: (AUG-CC-PVTZ AUX)
    Blend: AUG-CC-PVTZ-JKFIT
  Basis Set: AUG-CC-PVTZ
    Blend: AUG-CC-PVTZ
  Basis Set: (AUG-CC-PVTZ AUX)
    Blend: AUG-CC-PVTZ-JKFIT
  @DF-UKS Final Energy: -1193.86499018590644
    Total Energy =                      -1193.8649901859066631
  Basis Set: AUG-CC-PVTZ
    Blend: AUG-CC-PVTZ
  Basis Set: (AUG-CC-PVTZ AUX)
    Blend: AUG-CC-PVTZ-JKFIT
  Basis Set: AUG-CC-PVTZ
    Blend: AUG-CC-PVTZ
  @DF-UKS Final Energy: -1194.06255617401212
    Total Energy =                      -1194.0625561740118883
  @DF-UKS Final Energy: -1194.12981014265870
    Total Energy =                      -1194.1298101426586982
  @DF-UKS Final Energy: -1194.15741763361666
    Total Energy =                      -1194.1574176336168875
  @DF-UKS Final Energy: -1194.17259484745637
    Total Energy =                      -1194.1725948474561392
  @DF-UKS Final Energy: -1194.18073262075404
    Total Energy =                      -1194.1807326207544975
  @DF-UKS Final Energy: -1194.18459576380428
    Total Energy =                      -1194.1845957638040545
  @DF-UKS Final Energy: -1194.18533540615545
    Total Energy =                      -1194.1853354061556729
  @DF-UKS Final Energy: -1194.18539901164968
    Total Energy =                      -1194.1853990116494515
  Basis Set: (AUG-CC-PVTZ AUX)
    Blend: AUG-CC-PVTZ-JKFIT
  Basis Set: AUG-CC-PVTZ
    Blend: AUG-CC-PVTZ
  Basis Set: (AUG-CC-PVTZ AUX)
    Blend: AUG-CC-PVTZ-JKFIT
  @DF-UKS Final Energy: -1194.18541243115760
    Total Energy =                      -1194.1854124311576015
  Basis Set: AUG-CC-PVTZ
    Blend: AUG-CC-PVTZ
  Basis Set: (AUG-CC-PVTZ AUX)
    Blend: AUG-CC-PVTZ-JKFIT
  Charge       = -2
  Multiplicity = 1
  Basis Set: AUG-CC-PVTZ
    Blend: AUG-CC-PVTZ
  Basis Set: (AUG-CC-PVTZ AUX)
    Blend: AUG-CC-PVTZ-JKFIT

    Orbital Energies [Eh]
    ---------------------

    Alpha Occupied:

       1A1   -88.619769     1B2   -88.561458     2A1   -88.561455
       3A1    -7.698503     2B2    -7.644144     4A1    -7.644140
       3B2    -5.653568     5A1    -5.650016     1B1    -5.642891
       6A1    -5.599971     4B2    -5.599971     7A1    -5.591838
       5B2    -5.591838     2B1    -5.590997     1A2    -5.590997
       8A1    -0.508976     6B2    -0.394619     9A1    -0.285300
       7B2    -0.087078    10A1    -0.065484     3B1    -0.049027
       2A2     0.039333    11A1     0.047096     8B2     0.053151
       4B1     0.104690

    Alpha Virtual:

       9B2     0.273635    12A1     0.277675    13A1     0.322369
      14A1     0.348946    10B2     0.349328     5B1     0.349988
       3A2     0.357302     6B1     0.364043    11B2     0.365626
      15A1     0.392147    16A1     0.413953    12B2     0.420936
      17A1     0.483412    13B2     0.492686     7B1     0.536791
       4A2     0.557505    18A1     0.558108    14B2     0.590768
      19A1     0.597546    15B2     0.601367     8B1     0.616044
      20A1     0.618198     5A2     0.631218     9B1     0.661613
      16B2     0.667367    21A1     0.667834    17B2     0.691470
       6A2     0.707689    22A1     0.733975    10B1     0.810798
      23A1     0.835519    24A1     0.882287     7A2     0.886454
      25A1     0.900485    18B2     0.902020    19B2     0.911610
       8A2     0.915333    11B1     0.922666    26A1     0.925429
      12B1     0.934654    20B2     0.941205    27A1     0.970068
      13B1     0.994260    21B2     0.997585    28A1     1.002112
       9A2     1.017735    22B2     1.021841    29A1     1.035298
      23B2     1.048477    14B1     1.063065    30A1     1.104068
      10A2     1.107433    15B1     1.107993    31A1     1.154301
      24B2     1.158751    16B1     1.161792    11A2     1.164479
      32A1     1.179683    25B2     1.207044    33A1     1.227741
      26B2     1.301668    12A2     1.328390    17B1     1.347601
      34A1     1.381537    13A2     1.396431    27B2     1.397428
      35A1     1.477302    18B1     1.483499    28B2     1.506439
      29B2     1.526656    36A1     1.558132    19B1     1.568174
      14A2     1.577724    30B2     1.664249    37A1     1.664662
      31B2     1.764820    38A1     1.879840    39A1     2.192336
      20B1     2.204513    15A2     2.216034    32B2     2.232638
      40A1     2.256777    16A2     2.261365    21B1     2.268092
      41A1     2.276807    33B2     2.279539    42A1     2.344282
      22B1     2.351518    34B2     2.370246    23B1     2.405736
      17A2     2.405792    43A1     2.406103    35B2     2.406628
      18A2     2.421859    36B2     2.441313    44A1     2.467428
      24B1     2.470185    25B1     2.488461    45A1     2.523018
      37B2     2.528070    26B1     2.554651    46A1     2.562589
      19A2     2.567836    38B2     2.578961    20A2     2.642591
      47A1     2.648908    21A2     2.649065    27B1     2.658370
      48A1     2.661526    39B2     2.662703    28B1     2.708258
      40B2     2.751015    49A1     2.771440    41B2     2.813564
      50A1     2.830663    42B2     2.833106    51A1     2.927920
      22A2     2.939570    29B1     2.939973    43B2     3.030892
      52A1     3.979166    44B2     4.009317    53A1     4.981363
      45B2     5.526690    54A1     6.019592

    Beta Occupied:

       1A1   -88.619769     1B2   -88.561458     2A1   -88.561455
       3A1    -7.698503     2B2    -7.644144     4A1    -7.644140
       3B2    -5.653568     5A1    -5.650016     1B1    -5.642891
       6A1    -5.599971     4B2    -5.599971     7A1    -5.591838
       5B2    -5.591838     2B1    -5.590997     1A2    -5.590997
       8A1    -0.508976     6B2    -0.394619     9A1    -0.285300
       7B2    -0.087078    10A1    -0.065484     3B1    -0.049027
       2A2     0.039333    11A1     0.047096     8B2     0.053151
       4B1     0.104690

    Beta Virtual:

       9B2     0.273635    12A1     0.277675    13A1     0.322369
      14A1     0.348946    10B2     0.349328     5B1     0.349988
       3A2     0.357302     6B1     0.364043    11B2     0.365626
      15A1     0.392147    16A1     0.413953    12B2     0.420936
      17A1     0.483412    13B2     0.492686     7B1     0.536791
       4A2     0.557505    18A1     0.558108    14B2     0.590768
      19A1     0.597546    15B2     0.601367     8B1     0.616044
      20A1     0.618198     5A2     0.631218     9B1     0.661613
      16B2     0.667367    21A1     0.667834    17B2     0.691470
       6A2     0.707689    22A1     0.733975    10B1     0.810798
      23A1     0.835519    24A1     0.882287     7A2     0.886454
      25A1     0.900485    18B2     0.902020    19B2     0.911610
       8A2     0.915333    11B1     0.922666    26A1     0.925429
      12B1     0.934654    20B2     0.941205    27A1     0.970068
      13B1     0.994260    21B2     0.997585    28A1     1.002112
       9A2     1.017735    22B2     1.021841    29A1     1.035298
      23B2     1.048477    14B1     1.063065    30A1     1.104068
      10A2     1.107433    15B1     1.107993    31A1     1.154301
      24B2     1.158751    16B1     1.161792    11A2     1.164479
      32A1     1.179683    25B2     1.207044    33A1     1.227741
      26B2     1.301668    12A2     1.328390    17B1     1.347601
      34A1     1.381537    13A2     1.396431    27B2     1.397428
      35A1     1.477302    18B1     1.483499    28B2     1.506439
      29B2     1.526656    36A1     1.558132    19B1     1.568174
      14A2     1.577724    30B2     1.664249    37A1     1.664662
      31B2     1.764820    38A1     1.879840    39A1     2.192336
      20B1     2.204513    15A2     2.216034    32B2     2.232638
      40A1     2.256777    16A2     2.261365    21B1     2.268092
      41A1     2.276807    33B2     2.279539    42A1     2.344282
      22B1     2.351518    34B2     2.370246    23B1     2.405736
      17A2     2.405792    43A1     2.406103    35B2     2.406628
      18A2     2.421859    36B2     2.441313    44A1     2.467428
      24B1     2.470185    25B1     2.488461    45A1     2.523018
      37B2     2.528070    26B1     2.554651    46A1     2.562589
      19A2     2.567836    38B2     2.578961    20A2     2.642591
      47A1     2.648908    21A2     2.649065    27B1     2.658370
      48A1     2.661526    39B2     2.662703    28B1     2.708258
      40B2     2.751015    49A1     2.771440    41B2     2.813564
      50A1     2.830663    42B2     2.833106    51A1     2.927920
      22A2     2.939570    29B1     2.939973    43B2     3.030892
      52A1     3.979166    44B2     4.009317    53A1     4.981363
      45B2     5.526690    54A1     6.019592

    Final Occupation by Irrep:
             A1    A2    B1    B2
    DOCC [    11,    2,    4,    8 ]
    SOCC [     0,    0,    0,    0 ]

  @DF-UKS Final Energy: -1194.18541339972126

   => Energetics <=

    Nuclear Repulsion Energy =            168.2204938289519305
    One-Electron Energy =               -2004.5476698347808906
    Two-Electron Energy =                 699.7008324856211630
    DFT Exchange-Correlation Energy =     -57.5590698795135012
    Empirical Dispersion Energy =           0.0000000000000000
    VV10 Nonlocal Energy =                  0.0000000000000000
    Total Energy =                      -1194.1854133997212557

  UHF NO Occupations:
  HONO-2 :    8 B2 2.0000000
  HONO-1 :   10 A1 2.0000000
  HONO-0 :   11 A1 2.0000000
  LUNO+0 :   12 A1 0.0000000
  LUNO+1 :   13 A1 0.0000000
  LUNO+2 :    9 B2 0.0000000
  LUNO+3 :   14 A1 0.0000000

Computation Completed

Properties will be evaluated at   0.000000,   0.000000,   0.000000 [a0]

Properties computed using the SCF density matrix

  Nuclear Dipole Moment: [e a0]
     X:     0.0000      Y:     0.0000      Z:     0.0000

  Electronic Dipole Moment: [e a0]
     X:     0.0000      Y:     0.0000      Z:    -0.7101

  Dipole Moment: [e a0]
     X:     0.0000      Y:     0.0000      Z:    -0.7101     Total:     0.7101

  Dipole Moment: [D]
     X:     0.0000      Y:     0.0000      Z:    -1.8048     Total:     1.8048

*** tstop() called on c2-5.compute.lan at Fri Jan 29 11:06:17 2021
Module time:
	user time   =      16.67 seconds =       0.28 minutes
	system time =       0.10 seconds =       0.00 minutes
	total time  =         17 seconds =       0.28 minutes
Total time:
	user time   =     390.60 seconds =       6.51 minutes
	system time =       3.52 seconds =       0.06 minutes
	total time  =        395 seconds =       6.58 minutes

*** tstart() called on c2-5.compute.lan
*** at Fri Jan 29 11:06:17 2021

         ------------------------------------------------------------
                                   SCF GRAD
                          Rob Parrish, Justin Turney,
                       Andy Simmonett, and Alex Sokolov
         ------------------------------------------------------------

  ==> Geometry <==

    Molecular point group: c2v
    Full point group: C2v

    Geometry (in Angstrom), charge = -2, multiplicity = 1:

       Center              X                  Y                   Z               Mass
    ------------   -----------------  -----------------  -----------------  -----------------
         S            0.000000000000     0.000000000000    -0.771752291967    31.972071174400
         S            0.000000000000    -1.744725390929     0.385876145984    31.972071174400
         S            0.000000000000     1.744725390929     0.385876145984    31.972071174400

  Nuclear repulsion =  168.220493828951930

  ==> Basis Set <==

  Basis Set: AUG-CC-PVTZ
    Blend: AUG-CC-PVTZ
    Number of shells: 48
    Number of basis function: 150
    Number of Cartesian functions: 177
    Spherical Harmonics?: true
    Max angular momentum: 3

  ==> DFJKGrad: Density-Fitted SCF Gradients <==

    Gradient:                    1
    J tasked:                  Yes
    K tasked:                  Yes
    wK tasked:                 Yes
    Omega:               2.000E-01
    OpenMP threads:              1
    Integrals threads:           1
    Memory [MiB]:             7152
    Schwarz Cutoff:          0E+00
    Fitting Condition:       1E-10

   => Auxiliary Basis Set <=

  Basis Set: (AUG-CC-PVTZ AUX)
    Blend: AUG-CC-PVTZ-JKFIT
    Number of shells: 126
    Number of basis function: 438
    Number of Cartesian functions: 540
    Spherical Harmonics?: true
    Max angular momentum: 4

  ==> DFT Potential <==

   => Composite Functional: LRC-WPBEH <=

    LRC-wPBEh Hyb-GGA Exchange-Correlation Functional

    M. A. Rohrdanz, K. M. Martins, and J. M. Herbert, J. Chem. Phys. 130, 054112 (2009)

    Deriv               =              1
    GGA                 =           TRUE
    Meta                =          FALSE

    Exchange Hybrid     =           TRUE
    MP2 Hybrid          =          FALSE

   => Exchange Functionals <=

    0.8000   HJS screened exchange PBE version [omega = 0.2000]

   => Exact (HF) Exchange <=

    0.8000            HF,LR [omega = 0.2000]
    0.2000               HF

   => Correlation Functionals <=

    1.0000   Perdew, Burke & Ernzerhof

   => Molecular Quadrature <=

    Radial Scheme          =       TREUTLER
    Pruning Scheme         =           NONE
    Nuclear Scheme         =       TREUTLER

    BS radius alpha        =              1
    Pruning alpha          =              1
    Radial Points          =             75
    Spherical Points       =            302
    Total Points           =          65884
    Total Blocks           =            600
    Max Points             =            255
    Max Functions          =            150
    Weights Tolerance      =       1.00E-15

  -Total Gradient:
     Atom            X                  Y                   Z
    ------   -----------------  -----------------  -----------------
       1        0.000000000000     0.000000000000    -0.000032380565
       2        0.000000000000    -0.000032067998     0.000012611915
       3       -0.000000000000     0.000032067998     0.000012611915

*** tstop() called on c2-5.compute.lan at Fri Jan 29 11:06:29 2021
Module time:
	user time   =      11.38 seconds =       0.19 minutes
	system time =       0.12 seconds =       0.00 minutes
	total time  =         12 seconds =       0.20 minutes
Total time:
	user time   =     401.98 seconds =       6.70 minutes
	system time =       3.64 seconds =       0.06 minutes
	total time  =        407 seconds =       6.78 minutes

			-----------------------------------------
			 OPTKING 2.0: for geometry optimizations
			  - R.A. King,  Bethel University
			-----------------------------------------

	Previous internal coordinate definitions found.
	---Fragment 1 Geometry and Gradient---
	 S           0.0000000000        0.0000000000       -1.4584004685
	 S           0.0000000000       -3.2970531530        0.7292002343
	 S           0.0000000000        3.2970531530        0.7292002343
	             0.0000000000        0.0000000000       -0.0000323806
	             0.0000000000       -0.0000320680        0.0000126119
	            -0.0000000000        0.0000320680        0.0000126119

	---Fragment 1 Intrafragment Coordinates---
	 - Coordinate -           - BOHR/RAD -       - ANG/DEG -
	 R(1,2)           =         3.956786	       2.093841
	 R(1,3)           =         3.956786	       2.093841
	 R(2,3)           =         6.594106	       3.489451
	 B(1,2,3)         =         0.585808	      33.564346
	 B(1,3,2)         =         0.585808	      33.564346
	 B(2,1,3)         =         1.969976	     112.871309

	Current energy   :     -1194.1854133997

	Energy change for the previous step:
		Projected    :        -0.0000030565
		Actual       :        -0.0000009686

	Performing BFGS update.
	Previous computed or guess Hessian on step 1.
	Steps to be used in Hessian update: 11 10
	Taking RFO optimization step.
	Going to follow RFO solution 1.
	Using RFO vector 1.
	Norm of target step-size    0.00066
	Projected energy change by RFO approximation:        -0.0000000270

	Back-transformation to cartesian coordinates...
	Successfully converged to displaced geometry.

	--- Internal Coordinate Step in ANG or DEG, aJ/ANG or AJ/DEG ---
	 ---------------------------------------------------------------------------
	   Coordinate                Previous        Force       Change         New
	   ----------                --------       ------       ------       ------
	    1 R(1,2)          =      2.093841    -0.000180    -0.000118     2.093723
	    2 R(1,3)          =      2.093841    -0.000180    -0.000118     2.093723
	    3 R(2,3)          =      3.489451    -0.000131    -0.000304     3.489147
	    4 B(1,2,3)        =     33.564346    -0.000000     0.002670    33.567015
	    5 B(1,3,2)        =     33.564346    -0.000000     0.002670    33.567015
	    6 B(2,1,3)        =    112.871309     0.000001    -0.005339   112.865970
	 ---------------------------------------------------------------------------
	Successfully symmetrized geometry.

  ==> Convergence Check <==

  Measures of convergence in internal coordinates in au.
  Criteria marked as inactive (o), active & met (*), and active & unmet ( ).
  ---------------------------------------------------------------------------------------------
   Step     Total Energy     Delta E     MAX Force     RMS Force      MAX Disp      RMS Disp
  ---------------------------------------------------------------------------------------------
    Convergence Criteria    1.00e-06 *    3.00e-04 *             o    1.20e-03 *             o
  ---------------------------------------------------------------------------------------------
     12   -1194.18541340   -9.69e-07 *    2.18e-05 *    1.49e-05 o    5.74e-04 *    2.71e-04 o  ~
  ---------------------------------------------------------------------------------------------

  **** Optimization is complete! (in 12 steps) ****

  ==> Optimization Summary <==

  Measures of convergence in internal coordinates in au.
  --------------------------------------------------------------------------------------------------------------- ~
   Step         Total Energy             Delta E       MAX Force       RMS Force        MAX Disp        RMS Disp  ~
  --------------------------------------------------------------------------------------------------------------- ~
      1   -1193.641734129591  -1193.641734129591      0.46965448      0.34746139      0.19101172      0.13438886  ~
      2   -1193.864990185906     -0.223256056316      0.32300910      0.23063327      0.28877969      0.19910307  ~
      3   -1194.062556174012     -0.197565988106      0.16374584      0.11020796      0.20955205      0.13840013  ~
      4   -1194.129810142659     -0.067253968647      0.08341770      0.05588234      0.17372348      0.11222087  ~
      5   -1194.157417633617     -0.027607490958      0.04192833      0.02973170      0.25037870      0.12452228  ~
      6   -1194.172594847456     -0.015177213840      0.02663927      0.01480797      0.29123176      0.13379576  ~
      7   -1194.180732620754     -0.008137773298      0.01529087      0.00693362      0.31426404      0.14108047  ~
      8   -1194.184595763804     -0.003863143050      0.00565960      0.00313835      0.17275566      0.07765630  ~
      9   -1194.185335406155     -0.000739642351      0.00207556      0.00161618      0.03703687      0.01743540  ~
     10   -1194.185399011650     -0.000063605494      0.00120057      0.00084182      0.00771198      0.00535162  ~
     11   -1194.185412431158     -0.000013419508      0.00036802      0.00024764      0.00252844      0.00171264  ~
     12   -1194.185413399721     -0.000000968564      0.00002179      0.00001490      0.00057405      0.00027119  ~
  --------------------------------------------------------------------------------------------------------------- ~

	Writing optimization data to binary file.
	Final energy is  -1194.1854133997213
	Final (previous) structure:
	Cartesian Geometry (in Angstrom)
	    S     0.0000000000   0.0000000000  -0.7717522889
	    S     0.0000000000  -1.7447253841   0.3858761445
	    S     0.0000000000   1.7447253841   0.3858761445
	Saving final (previous) structure.
			--------------------------
			 OPTKING Finished Execution
			--------------------------

    Final optimized geometry and variables:
    Molecular point group: c2v
    Full point group: C2v

    Geometry (in Angstrom), charge = -2, multiplicity = 1:

    S
    S             1          R1
    S             1          R2      2          A1

*** Psi4 exiting successfully. Buy a developer a beer!
