                               Psi4 1.4a2.dev191

  ==> Input File <==

--------------------------------------------------------------------------
memory 10 GB

molecule  {
-1 2
S
S 1 r1
S 1 r2 2 a1
r1 = 2.0
r2 = 2.1
a1 = 120.0
}

set {
reference uks
basis aug-cc-pvtz
g_convergence gau_verytight
dft_spherical_points 590
dft_radial_points 99
maxiter 500
}

optimize('wb97m-v')
frequencies('wb97m-v')

--------------------------------------------------------------------------

    Molecular point group: cs
  Charge       = -1
  Multiplicity = 2
  Basis Set: AUG-CC-PVTZ
    Blend: AUG-CC-PVTZ
  Basis Set: (AUG-CC-PVTZ AUX)
    Blend: AUG-CC-PVTZ-JKFIT
  @DF-UKS Final Energy: -1194.63949737198777
    Total Energy =                      -1194.6394973719879999
    Molecular point group: cs
  Basis Set: AUG-CC-PVTZ
    Blend: AUG-CC-PVTZ
  Basis Set: (AUG-CC-PVTZ AUX)
    Blend: AUG-CC-PVTZ-JKFIT
  @DF-UKS Final Energy: -1194.63951715981875
    Total Energy =                      -1194.6395171598187517
  Basis Set: AUG-CC-PVTZ
    Blend: AUG-CC-PVTZ
  Basis Set: (AUG-CC-PVTZ AUX)
    Blend: AUG-CC-PVTZ-JKFIT
  @DF-UKS Final Energy: -1194.63947743054882
    Total Energy =                      -1194.6394774305485953
  Basis Set: AUG-CC-PVTZ
    Blend: AUG-CC-PVTZ
  Basis Set: (AUG-CC-PVTZ AUX)
    Blend: AUG-CC-PVTZ-JKFIT
  @DF-UKS Final Energy: -1194.63948068709351
    Total Energy =                      -1194.6394806870935099
  @DF-UKS Final Energy: -1194.63951377888816
    Total Energy =                      -1194.6395137788879310
  @DF-UKS Final Energy: -1194.63952255983668
    Total Energy =                      -1194.6395225598366778
  @DF-UKS Final Energy: -1194.63947207127694
    Total Energy =                      -1194.6394720712767139
  @DF-UKS Final Energy: -1194.64377652631447
    Total Energy =                      -1194.6437765263144684
  @DF-UKS Final Energy: -1194.64378898991799
    Total Energy =                      -1194.6437889899179936
  @DF-UKS Final Energy: -1194.64376386031381
    Total Energy =                      -1194.6437638603140385
  @DF-UKS Final Energy: -1194.64376801990784
    Total Energy =                      -1194.6437680199080660
  @DF-UKS Final Energy: -1194.64378472860244
    Total Energy =                      -1194.6437847286024407
  @DF-UKS Final Energy: -1194.64378406891501
    Total Energy =                      -1194.6437840689150107
  @DF-UKS Final Energy: -1194.64376885190768
    Total Energy =                      -1194.6437688519076801
  @DF-UKS Final Energy: -1194.64428588776400
    Total Energy =                      -1194.6442858877637718
  @DF-UKS Final Energy: -1194.64428499716951
    Total Energy =                      -1194.6442849971692794
  @DF-UKS Final Energy: -1194.64428653629921
    Total Energy =                      -1194.6442865362994326
  @DF-UKS Final Energy: -1194.64428459139435
    Total Energy =                      -1194.6442845913941255
  @DF-UKS Final Energy: -1194.64428687885356
    Total Energy =                      -1194.6442868788533360
  @DF-UKS Final Energy: -1194.64428278411879
    Total Energy =                      -1194.6442827841187864
  **** Optimization is complete! (in 7 steps) ****
    Final optimized geometry and variables:
  @DF-UKS Final Energy: -1194.64432665690128
    Total Energy =                      -1194.6443266569010575
  @DF-UKS Final Energy: -1194.64432653615586
    Total Energy =                      -1194.6443265361556314
  @DF-UKS Final Energy: -1194.64432653619770
    Total Energy =                      -1194.6443265361979229
  @DF-UKS Final Energy: -1194.64432650577874
    Total Energy =                      -1194.6443265057791905
  @DF-UKS Final Energy: -1194.64432650459730
    Total Energy =                      -1194.6443265045970747
  @DF-UKS Final Energy: -1194.64432658744568
    Total Energy =                      -1194.6443265874456756
  @DF-UKS Final Energy: -1194.64432658832766
    Total Energy =                      -1194.6443265883272034
  @DF-UKS Final Energy: -1194.64432665690015
    Total Energy =                      -1194.6443266569006028
  @DF-UKS Final Energy: -1194.64432653615609
    Total Energy =                      -1194.6443265361563135
  @DF-UKS Final Energy: -1194.64432653619861
    Total Energy =                      -1194.6443265361986050
  @DF-UKS Final Energy: -1194.64432650578328
    Total Energy =                      -1194.6443265057832832
  @DF-UKS Final Energy: -1194.64432650459867
    Total Energy =                      -1194.6443265045984390
  @DF-UKS Final Energy: -1194.64432658744568
    Total Energy =                      -1194.6443265874454482
  @DF-UKS Final Energy: -1194.64432658832834
    Total Energy =                      -1194.6443265883281128
  @DF-UKS Final Energy: -1194.64432644396447
    Total Energy =                      -1194.6443264439647010
  @DF-UKS Final Energy: -1194.64432644410226
    Total Energy =                      -1194.6443264441018073
  Basis Set: AUG-CC-PVTZ
    Blend: AUG-CC-PVTZ
  Basis Set: (AUG-CC-PVTZ AUX)
    Blend: AUG-CC-PVTZ-JKFIT
  @DF-UKS Final Energy: -1194.64432636409310
    Total Energy =                      -1194.6443263640931036
  Basis Set: AUG-CC-PVTZ
    Blend: AUG-CC-PVTZ
  Basis Set: (AUG-CC-PVTZ AUX)
    Blend: AUG-CC-PVTZ-JKFIT
  @DF-UKS Final Energy: -1194.64432636736205
    Total Energy =                      -1194.6443263673620550
  Multiplicity = 2
  Basis Set: AUG-CC-PVTZ
    Blend: AUG-CC-PVTZ
  Basis Set: (AUG-CC-PVTZ AUX)
    Blend: AUG-CC-PVTZ-JKFIT
  @DF-UKS Final Energy: -1194.64432637295295
    Total Energy =                      -1194.6443263729531736
    Molecular point group: cs

    Geometry (in Angstrom), charge = -1, multiplicity = 2:

       Center              X                  Y                   Z               Mass
    ------------   -----------------  -----------------  -----------------  -----------------
         S            0.607154629583     0.393353523015     0.000000000000    31.972071174400
         S            0.607057802902    -1.600793336765     0.000000000000    31.972071174400
         S           -1.214212432485     1.207439813750     0.000000000000    31.972071174400

  Charge       = -1
  Multiplicity = 2
  Basis Set: AUG-CC-PVTZ
    Blend: AUG-CC-PVTZ
  Basis Set: (AUG-CC-PVTZ AUX)
    Blend: AUG-CC-PVTZ-JKFIT

    Orbital Energies [Eh]
    ---------------------

    Alpha Occupied:

       1Ap   -89.097991     2Ap   -89.008340     3Ap   -89.008260
       4Ap    -8.003969     5Ap    -7.921271     6Ap    -7.921176
       1App   -5.913063     7Ap    -5.913023     8Ap    -5.909292
       9Ap    -5.832051    10Ap    -5.831962     2App   -5.828858
       3App   -5.828756    11Ap    -5.824098    12Ap    -5.824004
      13Ap    -0.766071    14Ap    -0.628981    15Ap    -0.500844
      16Ap    -0.304705     4App   -0.288923    17Ap    -0.287980
       5App   -0.173934    18Ap    -0.151280    19Ap    -0.145134
       6App   -0.101518

    Alpha Virtual:

      20Ap     0.149849    21Ap     0.151885    22Ap     0.183482
       7App    0.201084    23Ap     0.207531    24Ap     0.208801
       8App    0.216682     9App    0.219107    25Ap     0.227635
      26Ap     0.247134    27Ap     0.252600    28Ap     0.276074
      29Ap     0.325511    30Ap     0.344619    10App    0.367659
      11App    0.389371    31Ap     0.394785    32Ap     0.428438
      33Ap     0.438921    34Ap     0.441422    35Ap     0.452104
      12App    0.453539    13App    0.471174    14App    0.498326
      36Ap     0.507592    37Ap     0.511880    38Ap     0.539384
      15App    0.542554    39Ap     0.569384    16App    0.628121
      40Ap     0.663611    17App    0.702982    41Ap     0.705604
      42Ap     0.723911    43Ap     0.726998    44Ap     0.736885
      18App    0.737963    19App    0.739227    45Ap     0.739692
      20App    0.744143    46Ap     0.763978    47Ap     0.782728
      21App    0.820706    48Ap     0.828408    49Ap     0.832087
      22App    0.844910    50Ap     0.854892    51Ap     0.868197
      52Ap     0.883987    23App    0.899239    24App    0.931692
      53Ap     0.940781    25App    0.942866    54Ap     0.990593
      55Ap     0.993523    26App    0.995841    27App    0.996646
      56Ap     1.025868    57Ap     1.062064    58Ap     1.072706
      59Ap     1.155073    28App    1.172057    29App    1.179262
      60Ap     1.212363    30App    1.230736    61Ap     1.234410
      31App    1.312073    62Ap     1.330309    63Ap     1.335477
      64Ap     1.356354    32App    1.387453    65Ap     1.399105
      33App    1.400883    66Ap     1.492379    67Ap     1.510127
      68Ap     1.594350    69Ap     1.671596    70Ap     1.975334
      34App    1.986609    35App    2.012106    71Ap     2.026349
      72Ap     2.052311    36App    2.056847    37App    2.063958
      73Ap     2.069452    74Ap     2.082659    38App    2.123285
      75Ap     2.128542    76Ap     2.176792    77Ap     2.186933
      78Ap     2.189567    39App    2.189983    40App    2.197581
      41App    2.214414    79Ap     2.223525    42App    2.259460
      80Ap     2.261142    43App    2.270546    81Ap     2.322143
      82Ap     2.329179    44App    2.353467    45App    2.367628
      83Ap     2.381693    84Ap     2.385638    46App    2.439922
      85Ap     2.462952    47App    2.483220    48App    2.486708
      86Ap     2.498281    87Ap     2.506328    49App    2.546097
      88Ap     2.585048    89Ap     2.612662    90Ap     2.668267
      91Ap     2.689742    92Ap     2.781716    50App    2.787524
      51App    2.789549    93Ap     2.825109    94Ap     2.900686
      95Ap     3.850925    96Ap     3.917642    97Ap     4.988487
      98Ap     5.468666    99Ap     5.843805

    Beta Occupied:

       1Ap   -89.095047     2Ap   -89.006662     3Ap   -89.006586
       4Ap    -8.001001     5Ap    -7.919566     6Ap    -7.919473
       7Ap    -5.911044     8Ap    -5.907344     1App   -5.902528
       9Ap    -5.831074    10Ap    -5.830988    11Ap    -5.822908
      12Ap    -5.822816     2App   -5.822663     3App   -5.822572
      13Ap    -0.755983    14Ap    -0.620255    15Ap    -0.480812
      16Ap    -0.296042    17Ap    -0.281051     4App   -0.256617
      18Ap    -0.144890    19Ap    -0.140307     5App   -0.131440

    Beta Virtual:

       6App    0.122333    20Ap     0.149409    21Ap     0.151785
      22Ap     0.183142     7App    0.201798    23Ap     0.208101
      24Ap     0.209259     8App    0.215665     9App    0.221758
      25Ap     0.227795    26Ap     0.252230    27Ap     0.253339
      28Ap     0.280732    29Ap     0.326967    30Ap     0.345429
      10App    0.370717    31Ap     0.396271    11App    0.397732
      32Ap     0.429500    33Ap     0.441458    34Ap     0.443833
      35Ap     0.455238    12App    0.460650    13App    0.474706
      14App    0.501197    36Ap     0.508013    37Ap     0.513247
      38Ap     0.540672    15App    0.545122    39Ap     0.571442
      16App    0.635130    40Ap     0.665310    41Ap     0.706439
      17App    0.708819    42Ap     0.726392    43Ap     0.728828
      44Ap     0.737655    45Ap     0.743683    18App    0.746093
      19App    0.746315    20App    0.751059    46Ap     0.765686
      47Ap     0.785748    21App    0.828715    48Ap     0.834641
      49Ap     0.835461    22App    0.851225    50Ap     0.859402
      51Ap     0.876988    52Ap     0.891790    23App    0.908902
      24App    0.937669    53Ap     0.945577    25App    0.954571
      54Ap     0.995117    55Ap     0.996116    26App    0.998261
      27App    1.001313    56Ap     1.032049    57Ap     1.065403
      58Ap     1.075226    59Ap     1.156350    28App    1.175092
      29App    1.184400    60Ap     1.216079    30App    1.235923
      61Ap     1.236618    31App    1.316891    62Ap     1.331828
      63Ap     1.336651    64Ap     1.359614    32App    1.394174
      65Ap     1.401682    33App    1.408354    66Ap     1.493663
      67Ap     1.520460    68Ap     1.603910    69Ap     1.687550
      70Ap     1.991976    34App    2.005865    35App    2.026308
      71Ap     2.040828    72Ap     2.070165    36App    2.070573
      73Ap     2.072629    37App    2.078473    74Ap     2.086362
      75Ap     2.129857    38App    2.148386    76Ap     2.180161
      77Ap     2.197000    78Ap     2.197322    39App    2.212399
      40App    2.214272    41App    2.226872    79Ap     2.229156
      80Ap     2.269888    42App    2.274875    43App    2.300546
      81Ap     2.328355    82Ap     2.338245    44App    2.367877
      45App    2.381977    83Ap     2.391021    84Ap     2.396858
      46App    2.449418    85Ap     2.471495    47App    2.499966
      48App    2.502714    86Ap     2.506584    87Ap     2.512083
      49App    2.563830    88Ap     2.597971    89Ap     2.617228
      90Ap     2.674212    91Ap     2.696954    92Ap     2.787620
      50App    2.802243    51App    2.810471    93Ap     2.827569
      94Ap     2.903105    95Ap     3.854077    96Ap     3.921449
      97Ap     4.997261    98Ap     5.475882    99Ap     5.853341

    Final Occupation by Irrep:
             Ap   App
    DOCC [    19,    5 ]
    SOCC [     0,    1 ]

  @DF-UKS Final Energy: -1194.64432637625191

   => Energetics <=

    Nuclear Repulsion Energy =            176.3106122361903658
    One-Electron Energy =               -2010.9465018733203578
    Two-Electron Energy =                 699.2697308257764917
    DFT Exchange-Correlation Energy =     -59.4784475254021743
    Empirical Dispersion Energy =           0.0000000000000000
    VV10 Nonlocal Energy =                  0.2002799605037176
    Total Energy =                      -1194.6443263762521383

  UHF NO Occupations:
  HONO-2 :    4App 1.9993781
  HONO-1 :    5App 1.9984758
  HONO-0 :    6App 1.0000000
  LUNO+0 :    7App 0.0015242
  LUNO+1 :    8App 0.0006219
  LUNO+2 :   20 Ap 0.0001850
  LUNO+3 :   21 Ap 0.0000686

Computation Completed

Properties will be evaluated at   0.000000,   0.000000,   0.000000 [a0]

Properties computed using the SCF density matrix

  Nuclear Dipole Moment: [e a0]
     X:     0.0000      Y:    -0.0000      Z:     0.0000

  Electronic Dipole Moment: [e a0]
     X:     0.3865      Y:     0.2480      Z:     0.0000

  Dipole Moment: [e a0]
     X:     0.3865      Y:     0.2480      Z:     0.0000     Total:     0.4592

  Dipole Moment: [D]
     X:     0.9824      Y:     0.6305      Z:     0.0000     Total:     1.1673

*** tstop() called on c1-9.compute.lan at Wed Feb  3 11:04:02 2021
Module time:
	user time   =     143.20 seconds =       2.39 minutes
	system time =       0.91 seconds =       0.02 minutes
	total time  =        144 seconds =       2.40 minutes
Total time:
	user time   =    6261.23 seconds =     104.35 minutes
	system time =      51.36 seconds =       0.86 minutes
	total time  =       6323 seconds =     105.38 minutes

         ----------------------------------------------------------
                                   FINDIF
                     R. A. King and Jonathon Misiewicz
         ---------------------------------------------------------

  Computing second-derivative from energies using projected,
  symmetry-adapted, cartesian coordinates.

  13 energies passed in, including the reference geometry.
    Using 3-point formula.
    Energy without displacement: -1194.6443266569
    Check energies below for precision!
    0: -1        :     -1194.6443265362
    0: 1         :     -1194.6443265362
    1: -1        :     -1194.6443265058
    1: 1         :     -1194.6443265046
    2: -1        :     -1194.6443265874
    2: 1         :     -1194.6443265883
    0: 1, 1: 1   :     -1194.6443264440
    0: -1, 1: -1 :     -1194.6443264441
    0: 1, 2: 1   :     -1194.6443263641
    0: -1, 2: -1 :     -1194.6443263674
    1: 1, 2: 1   :     -1194.6443263730
    1: -1, 2: -1 :     -1194.6443263763

-------------------------------------------------------------

  ==> Harmonic Vibrational Analysis <==

  non-mass-weighted Hessian:       Symmetric? True   Hermitian? True   Lin Dep Dim?  6 (0)
  projection of translations (True) and rotations (True) removed 6 degrees of freedom (6)
  total projector:                 Symmetric? True   Hermitian? True   Lin Dep Dim?  6 (6)
  mass-weighted Hessian:           Symmetric? True   Hermitian? True   Lin Dep Dim?  6 (0)
  pre-proj  low-frequency mode:    0.0000i [cm^-1]
  pre-proj  low-frequency mode:    0.0000i [cm^-1]
  pre-proj  low-frequency mode:    0.0000i [cm^-1]
  pre-proj  low-frequency mode:    0.0000i [cm^-1]
  pre-proj  low-frequency mode:    0.0000  [cm^-1]
  pre-proj  low-frequency mode:    0.0000  [cm^-1]
  pre-proj  all modes:['0.0000i' '0.0000i' '0.0000i' '0.0000i' '0.0000' '0.0000' '225.9968'
 '558.3947' '599.1038']
  projected mass-weighted Hessian: Symmetric? True   Hermitian? True   Lin Dep Dim?  6 (6)
  post-proj low-frequency mode:    0.0000i [cm^-1] (TR)
  post-proj low-frequency mode:    0.0000i [cm^-1] (TR)
  post-proj low-frequency mode:    0.0000i [cm^-1] (TR)
  post-proj low-frequency mode:    0.0000  [cm^-1] (TR)
  post-proj low-frequency mode:    0.0000  [cm^-1] (TR)
  post-proj low-frequency mode:    0.0000  [cm^-1] (TR)
  post-proj  all modes:['0.0000i' '0.0000i' '0.0000i' '0.0000' '0.0000' '0.0000' '225.9968'
 '558.3947' '599.1038']

  Vibration                       7                   8                   9
  Freq [cm^-1]                 225.9968            558.3947            599.1038
  Irrep                           Ap                  Ap                  Ap
  Reduced mass [u]             31.9721             31.9721             31.9721
  Force const [mDyne/A]         0.9621              5.8736              6.7612
  Turning point v=0 [a0]        0.1291              0.0821              0.0793
  RMS dev v=0 [a0 u^1/2]        0.5161              0.3283              0.3170
  Char temp [K]                325.1590            803.4056            861.9770
  ----------------------------------------------------------------------------------
      1   S               -0.41 -0.27 -0.00    0.55  0.35  0.00   -0.42  0.64  0.00
      2   S                0.51 -0.34  0.00   -0.04 -0.53 -0.00   -0.00 -0.46  0.00
      3   S               -0.10  0.61  0.00   -0.51  0.18 -0.00    0.42 -0.19  0.00

  ==> Thermochemistry Components <==

  Entropy, S
    Electronic S            1.377 [cal/(mol K)]        5.763 [J/(mol K)]       0.00219507 [mEh/K] (multiplicity = 2)
    Translational S        39.594 [cal/(mol K)]      165.660 [J/(mol K)]       0.06309659 [mEh/K] (mol. weight = 95.9162 [u], P = 101325.00 [Pa])
    Rotational S           25.240 [cal/(mol K)]      105.606 [J/(mol K)]       0.04022312 [mEh/K] (symmetry no. = 1)
    Vibrational S           2.889 [cal/(mol K)]       12.087 [J/(mol K)]       0.00460354 [mEh/K]
  Total S                  69.100 [cal/(mol K)]      289.116 [J/(mol K)]       0.11011831 [mEh/K]
  Correction S              0.000 [cal/(mol K)]        0.000 [J/(mol K)]       0.00000000 [mEh/K]

  Constant volume heat capacity, Cv
    Electronic Cv           0.000 [cal/(mol K)]        0.000 [J/(mol K)]       0.00000000 [mEh/K]
    Translational Cv        2.981 [cal/(mol K)]       12.472 [J/(mol K)]       0.00475022 [mEh/K]
    Rotational Cv           2.981 [cal/(mol K)]       12.472 [J/(mol K)]       0.00475022 [mEh/K]
    Vibrational Cv          3.956 [cal/(mol K)]       16.554 [J/(mol K)]       0.00630504 [mEh/K]
  Total Cv                  9.918 [cal/(mol K)]       41.497 [J/(mol K)]       0.01580547 [mEh/K]
  Correction Cv             0.000 [cal/(mol K)]        0.000 [J/(mol K)]       0.00000000 [mEh/K]

  Constant pressure heat capacity, Cp
    Electronic Cp           0.000 [cal/(mol K)]        0.000 [J/(mol K)]       0.00000000 [mEh/K]
    Translational Cp        4.968 [cal/(mol K)]       20.786 [J/(mol K)]       0.00791703 [mEh/K]
    Rotational Cp           2.981 [cal/(mol K)]       12.472 [J/(mol K)]       0.00475022 [mEh/K]
    Vibrational Cp          3.956 [cal/(mol K)]       16.554 [J/(mol K)]       0.00630504 [mEh/K]
  Total Cp                 11.905 [cal/(mol K)]       49.812 [J/(mol K)]       0.01897228 [mEh/K]
  Correction Cp             0.000 [cal/(mol K)]        0.000 [J/(mol K)]       0.00000000 [mEh/K]

  ==> Thermochemistry Energy Analysis <==

  Raw electronic energy, E0
  Total E0, Electronic energy at well bottom at 0 [K]                -1194.64432666 [Eh]

  Zero-point energy, ZPE_vib = Sum_i nu_i / 2
    Electronic ZPE          0.000 [kcal/mol]        0.000 [kJ/mol]       0.00000000 [Eh]
    Translational ZPE       0.000 [kcal/mol]        0.000 [kJ/mol]       0.00000000 [Eh]
    Rotational ZPE          0.000 [kcal/mol]        0.000 [kJ/mol]       0.00000000 [Eh]
    Vibrational ZPE         1.978 [kcal/mol]        8.275 [kJ/mol]       0.00315183 [Eh]         691.748 [cm^-1]
  Correction ZPE            1.978 [kcal/mol]        8.275 [kJ/mol]       0.00315183 [Eh]         691.748 [cm^-1]
  Total ZPE, Electronic energy at 0 [K]                              -1194.64117482 [Eh]

  Thermal Energy, E (includes ZPE)
    Electronic E            0.000 [kcal/mol]        0.000 [kJ/mol]       0.00000000 [Eh]
    Translational E         0.889 [kcal/mol]        3.718 [kJ/mol]       0.00141628 [Eh]
    Rotational E            0.889 [kcal/mol]        3.718 [kJ/mol]       0.00141628 [Eh]
    Vibrational E           2.521 [kcal/mol]       10.549 [kJ/mol]       0.00401775 [Eh]
  Correction E              4.299 [kcal/mol]       17.985 [kJ/mol]       0.00685031 [Eh]
  Total E, Electronic energy at  298.15 [K]                          -1194.63747635 [Eh]

  Enthalpy, H_trans = E_trans + k_B * T
    Electronic H            0.000 [kcal/mol]        0.000 [kJ/mol]       0.00000000 [Eh]
    Translational H         1.481 [kcal/mol]        6.197 [kJ/mol]       0.00236046 [Eh]
    Rotational H            0.889 [kcal/mol]        3.718 [kJ/mol]       0.00141628 [Eh]
    Vibrational H           2.521 [kcal/mol]       10.549 [kJ/mol]       0.00401775 [Eh]
  Correction H              4.891 [kcal/mol]       20.464 [kJ/mol]       0.00779449 [Eh]
  Total H, Enthalpy at  298.15 [K]                                   -1194.63653217 [Eh]

  Gibbs free energy, G = H - T * S
    Electronic G           -0.411 [kcal/mol]       -1.718 [kJ/mol]      -0.00065446 [Eh]
    Translational G       -10.324 [kcal/mol]      -43.194 [kJ/mol]      -0.01645179 [Eh]
    Rotational G           -6.637 [kcal/mol]      -27.768 [kJ/mol]      -0.01057625 [Eh]
    Vibrational G           1.660 [kcal/mol]        6.945 [kJ/mol]       0.00264521 [Eh]
  Correction G            -15.711 [kcal/mol]      -65.735 [kJ/mol]      -0.02503728 [Eh]
  Total G, Free enthalpy at  298.15 [K]                              -1194.66936394 [Eh]

    Psi4 stopped on: Wednesday, 03 February 2021 11:04AM
    Psi4 wall time for execution: 1:45:23.65

*** Psi4 exiting successfully. Buy a developer a beer!
