                               Psi4 1.3.2 release

  ==> Input File <==

--------------------------------------------------------------------------
memory 46 GB

basis jerome {
assign pot
assign S aug-cc-pV(T+d)Z

[pot]
spherical
****
 K  0
 S 23 1.00
    2.709796E+07     4.136110E-07
    3.592856E+06     3.860330E-06
    7.222638E+05     2.394640E-05
    1.833976E+05     1.157540E-04
    5.464812E+04     4.697010E-04
    1.830913E+04     1.673720E-03
    6.712501E+03     5.370450E-03
    2.643719E+03     1.572510E-02
    1.103835E+03     4.193360E-02
    4.836777E+02     9.987620E-02
    2.206245E+02     2.019680E-01
    1.041117E+02     3.146270E-01
    5.052749E+01     3.107540E-01
    2.485247E+01     1.421920E-01
    1.128102E+01     1.658490E-02
    5.510166E+00    -2.759760E-04
    2.706914E+00     5.158310E-04
    1.122807E+00    -2.268950E-04
    5.236385E-01     6.652980E-05
    2.355180E-01    -3.685150E-05
    4.157977E-02     1.925250E-05
    2.555456E-02    -2.108420E-05
    1.471495E-02     7.044600E-06
 S 23 1.00
    2.709796E+07    -1.188290E-07
    3.592856E+06    -1.108550E-06
    7.222638E+05    -6.881230E-06
    1.833976E+05    -3.324150E-05
    5.464812E+04    -1.350850E-04
    1.830913E+04    -4.814570E-04
    6.712501E+03    -1.552620E-03
    2.643719E+03    -4.578330E-03
    1.103835E+03    -1.247930E-02
    4.836777E+02    -3.094650E-02
    2.206245E+02    -6.855530E-02
    1.041117E+02    -1.268300E-01
    5.052749E+01    -1.745020E-01
    2.485247E+01    -9.089560E-02
    1.128102E+01     2.506960E-01
    5.510166E+00     5.589630E-01
    2.706914E+00     3.284370E-01
    1.122807E+00     3.392170E-02
    5.236385E-01    -2.100280E-03
    2.355180E-01     1.383960E-03
    4.157977E-02    -5.315630E-04
    2.555456E-02     5.770310E-04
    1.471495E-02    -1.931440E-04
 S 23 1.00
    2.709796E+07     3.917470E-08
    3.592856E+06     3.650640E-07
    7.222638E+05     2.269460E-06
    1.833976E+05     1.094290E-05
    5.464812E+04     4.457360E-05
    1.830913E+04     1.584480E-04
    6.712501E+03     5.128440E-04
    2.643719E+03     1.507690E-03
    1.103835E+03     4.136940E-03
    4.836777E+02     1.024690E-02
    2.206245E+02     2.306520E-02
    1.041117E+02     4.308900E-02
    5.052749E+01     6.238120E-02
    2.485247E+01     3.270420E-02
    1.128102E+01    -1.021980E-01
    5.510166E+00    -3.317970E-01
    2.706914E+00    -3.030100E-01
    1.122807E+00     3.098410E-01
    5.236385E-01     6.732700E-01
    2.355180E-01     2.812200E-01
    4.157977E-02     9.376240E-03
    2.555456E-02    -6.955720E-03
    1.471495E-02     2.069460E-03
 S 23 1.00
    2.709796E+07    -7.564440E-09
    3.592856E+06    -7.055390E-08
    7.222638E+05    -4.380820E-07
    1.833976E+05    -2.115540E-06
    5.464812E+04    -8.601300E-06
    1.830913E+04    -3.064440E-05
    6.712501E+03    -9.892550E-05
    2.643719E+03    -2.917760E-04
    1.103835E+03    -7.977860E-04
    4.836777E+02    -1.985820E-03
    2.206245E+02    -4.449740E-03
    1.041117E+02    -8.390260E-03
    5.052749E+01    -1.206000E-02
    2.485247E+01    -6.568410E-03
    1.128102E+01     2.061430E-02
    5.510166E+00     6.770060E-02
    2.706914E+00     6.639570E-02
    1.122807E+00    -8.237770E-02
    5.236385E-01    -1.727150E-01
    2.355180E-01    -2.310290E-01
    4.157977E-02     5.090040E-01
    2.555456E-02     3.472180E-01
    1.471495E-02     2.809620E-01
 S 1 1.00
    2.555456E-02     1.000000E+00
 S 1 1.00
    1.471495E-02     1.000000E+00
 S 1 1.00
    8.470000E-03     1.000000E+00
 P 16 1.00
    9.533309E+03     4.212010E-05
    1.852081E+03     5.068300E-04
    5.464251E+02     3.311700E-03
    1.966947E+02     1.536840E-02
    7.964112E+01     5.457060E-02
    3.488324E+01     1.473880E-01
    1.604479E+01     2.879240E-01
    7.575632E+00     3.750810E-01
    3.672548E+00     2.545160E-01
    1.771130E+00     6.059280E-02
    8.515199E-01     2.508370E-03
    4.016017E-01     6.688870E-04
    1.851933E-01    -1.486150E-04
    5.523390E-02     4.936010E-05
    2.431085E-02    -3.513850E-05
    1.080339E-02     1.171450E-05
 P 16 1.00
    9.533309E+03    -1.280760E-05
    1.852081E+03    -1.547870E-04
    5.464251E+02    -1.010940E-03
    1.966947E+02    -4.738330E-03
    7.964112E+01    -1.703260E-02
    3.488324E+01    -4.754130E-02
    1.604479E+01    -9.560810E-02
    7.575632E+00    -1.337000E-01
    3.672548E+00    -7.425060E-02
    1.771130E+00     1.646810E-01
    8.515199E-01     4.057630E-01
    4.016017E-01     4.113600E-01
    1.851933E-01     1.734240E-01
    5.523390E-02     1.253640E-02
    2.431085E-02    -3.267140E-03
    1.080339E-02     1.039680E-03
 P 16 1.00
    9.533309E+03     1.764010E-06
    1.852081E+03     2.124880E-05
    5.464251E+02     1.392500E-04
    1.966947E+02     6.509140E-04
    7.964112E+01     2.349940E-03
    3.488324E+01     6.547470E-03
    1.604479E+01     1.326270E-02
    7.575632E+00     1.848520E-02
    3.672548E+00     1.025530E-02
    1.771130E+00    -2.652150E-02
    8.515199E-01    -6.086460E-02
    4.016017E-01    -7.474220E-02
    1.851933E-01    -4.870880E-02
    5.523390E-02     2.245720E-01
    2.431085E-02     5.839280E-01
    1.080339E-02     2.980960E-01
 P 1 1.00
    5.523390E-02     1.000000E+00
 P 1 1.00
    1.080339E-02     1.000000E+00
 P 1 1.00
    4.800000E-03     1.000000E+00
 D 6 1.00
    5.670903E+00     8.285900E-03
    1.459042E+00     2.332530E-02
    5.431827E-01     4.878080E-02
    1.346875E-01     7.349020E-02
    5.516013E-02     2.387630E-01
    1.501876E-02     8.253200E-01
 D 1 1.00
    5.516013E-02     1.000000E+00
 D 1 1.00
    1.501876E-02     1.000000E+00
 D 1 1.00
    6.010000E-03     1.000000E+00
 F 1 1.00
    8.493750E-02     1.000000E+00
 F 1 1.00
    3.398000E-02     1.000000E+00
 ****
}

molecule  {
0 2
S   -1.082035172875    1.048431713597    0.000000000000
S   -1.081730249708   -1.048306116516    0.000000000000
K    1.775500031540   -0.000103059980    0.000000000000
}
set {
basis jerome
reference uhf
g_convergence gau_verytight
e_convergence 10
scf_type pk
freeze_core true
geom_maxiter 100
}

set ccenergy {
e_convergence 10
r_convergence 10
}

e = energy('ccsd(t)')

print_out('Stephenergy {}'.format(e))

--------------------------------------------------------------------------

    Molecular point group: cs

    Geometry (in Angstrom), charge = 0, multiplicity = 2:

       Center              X                  Y                   Z               Mass
    ------------   -----------------  -----------------  -----------------  -----------------
         S           -1.082035172875     1.048431713597     0.000000000000    31.972071174400
         S           -1.081730249708    -1.048306116516     0.000000000000    31.972071174400
         K            1.775500031540    -0.000103059980     0.000000000000    38.963706486400

  Charge       = 0
  Multiplicity = 2
  Basis Set: JEROME
    Blend: AUG-CC-PV(T+D)Z + POT

    Orbital Energies [Eh]
    ---------------------

    Alpha Occupied:

       1Ap  -133.536476     2Ap   -91.915871     3Ap   -91.915844
       4Ap   -14.493601     1App  -11.523503     5Ap   -11.523393
       6Ap   -11.523377     7Ap    -8.913531     8Ap    -8.913370
       2App   -6.602523     3App   -6.602491     9Ap    -6.592347
      10Ap    -6.592014    11Ap    -6.590802    12Ap    -6.590773
      13Ap    -1.754394    14Ap    -0.975267     4App   -0.963952
      15Ap    -0.962778    16Ap    -0.939437    17Ap    -0.769910
       5App   -0.422501    18Ap    -0.410033    19Ap    -0.394408
       6App   -0.307762    20Ap    -0.275210

    Alpha Virtual:

      21Ap    -0.014552     7App    0.003814    22Ap     0.004185
      23Ap     0.007614    24Ap     0.017353     8App    0.017600
      25Ap     0.018023     9App    0.021525    26Ap     0.021605
      10App    0.023269    27Ap     0.023664    28Ap     0.027940
      29Ap     0.035644    30Ap     0.053382    11App    0.053534
      31Ap     0.055916    12App    0.059800    32Ap     0.062838
      13App    0.077879    33Ap     0.077984    34Ap     0.088195
      35Ap     0.109022    36Ap     0.110018    37Ap     0.127408
      14App    0.128101    38Ap     0.128996    15App    0.130038
      39Ap     0.131243    16App    0.134602    40Ap     0.135462
      41Ap     0.153477    42Ap     0.154943    17App    0.156599
      43Ap     0.166684    18App    0.167115    44Ap     0.178779
      19App    0.183136    20App    0.197616    45Ap     0.201648
      46Ap     0.212775    47Ap     0.226919    21App    0.240476
      48Ap     0.261580    49Ap     0.277060    50Ap     0.313281
      51Ap     0.326129    22App    0.331410    52Ap     0.348823
      53Ap     0.353865    54Ap     0.375534    23App    0.387701
      24App    0.388260    55Ap     0.390185    56Ap     0.394279
      25App    0.395816    26App    0.407419    27App    0.408903
      57Ap     0.416109    58Ap     0.437321    59Ap     0.438316
      60Ap     0.447495    28App    0.449291    29App    0.460870
      30App    0.471403    61Ap     0.479979    62Ap     0.495006
      63Ap     0.522091    64Ap     0.532703    31App    0.680506
      32App    0.699673    65Ap     0.707578    33App    0.711504
      66Ap     0.719724    67Ap     0.730528    68Ap     0.775215
      34App    0.800111    69Ap     0.814117    70Ap     0.823012
      71Ap     0.826590    35App    0.846280    72Ap     0.860446
      36App    0.881041    37App    0.908862    73Ap     0.919091
      74Ap     0.954134    75Ap     0.955201    76Ap     0.990445
      77Ap     1.016169    38App    1.020694    39App    1.049531
      78Ap     1.070820    79Ap     1.119194    40App    1.149975
      80Ap     1.182400    41App    1.191944    81Ap     1.192461
      82Ap     1.221074    42App    1.352633    83Ap     1.385449
      84Ap     1.448915    85Ap     1.669065    43App    2.022293
      86Ap     2.032840    87Ap     2.060748    44App    2.062380
      45App    2.073460    88Ap     2.091053    89Ap     2.133350
      46App    2.209389    47App    2.281290    90Ap     2.286137
      91Ap     2.287238    92Ap     2.305361    93Ap     2.368158
      48App    2.380657    49App    2.417306    94Ap     2.424401
      95Ap     2.460027    96Ap     2.468815    50App    2.478181
      51App    2.513980    52App    2.548574    97Ap     2.568860
      53App    2.574284    98Ap     2.635723    99Ap     2.658524
     100Ap     2.692136   101Ap     2.702060    54App    2.844086
     102Ap     2.874615   103Ap     3.956749   104Ap     4.982263
     105Ap     5.752614    55App    7.408128   106Ap     7.413725
     107Ap     7.427307    56App    7.430265    57App    7.434390
     108Ap     7.454540    58App    7.497586   109Ap     7.522562
     110Ap     7.584198   111Ap     7.603059

    Beta Occupied:

       1Ap  -133.536513     2Ap   -91.910288     3Ap   -91.910265
       4Ap   -14.493650     1App  -11.523567     5Ap   -11.523444
       6Ap   -11.523425     7Ap    -8.907468     8Ap    -8.907270
       9Ap    -6.589648    10Ap    -6.589302    11Ap    -6.587337
      12Ap    -6.587310     2App   -6.577986     3App   -6.577950
      13Ap    -1.754657    14Ap    -0.967725     4App   -0.964242
      15Ap    -0.962935    16Ap    -0.907415    17Ap    -0.699627
      18Ap    -0.394575    19Ap    -0.385966     5App   -0.296928
      20Ap    -0.262582

    Beta Virtual:

      21Ap    -0.014556     6App    0.003846    22Ap     0.004200
      23Ap     0.007603    24Ap     0.017352     7App    0.017356
      25Ap     0.018022     8App    0.021519    26Ap     0.021617
       9App    0.023431    27Ap     0.023752    28Ap     0.027946
      29Ap     0.035535    10App    0.043239    30Ap     0.053361
      31Ap     0.056238    11App    0.060265    12App    0.060991
      32Ap     0.062804    13App    0.078178    33Ap     0.078365
      34Ap     0.087894    35Ap     0.109723    36Ap     0.110984
      37Ap     0.127851    14App    0.128211    38Ap     0.128939
      15App    0.130073    39Ap     0.132234    40Ap     0.135594
      16App    0.136086    41Ap     0.153039    42Ap     0.155604
      43Ap     0.168339    17App    0.171154    18App    0.171453
      44Ap     0.178326    19App    0.184688    20App    0.199713
      45Ap     0.208143    46Ap     0.212753    47Ap     0.227873
      21App    0.241260    48Ap     0.262984    49Ap     0.276710
      50Ap     0.319174    51Ap     0.330051    52Ap     0.349069
      22App    0.352336    53Ap     0.357647    54Ap     0.380736
      55Ap     0.391218    56Ap     0.395282    23App    0.395347
      24App    0.397099    25App    0.397951    26App    0.409670
      27App    0.409872    57Ap     0.417288    58Ap     0.438372
      59Ap     0.445317    60Ap     0.448392    28App    0.465752
      29App    0.466542    30App    0.479543    61Ap     0.483892
      62Ap     0.497076    63Ap     0.524399    64Ap     0.533630
      31App    0.700366    65Ap     0.713763    66Ap     0.727710
      32App    0.734546    67Ap     0.736508    33App    0.741642
      68Ap     0.780719    69Ap     0.813530    34App    0.816857
      70Ap     0.839929    71Ap     0.841799    35App    0.879914
      72Ap     0.883513    36App    0.914242    37App    0.915843
      73Ap     0.927743    74Ap     0.957952    75Ap     0.961270
      76Ap     0.999238    77Ap     1.026885    38App    1.033079
      39App    1.060361    78Ap     1.077215    79Ap     1.119979
      40App    1.162183    80Ap     1.191752    81Ap     1.192677
      41App    1.198470    82Ap     1.223094    42App    1.368588
      83Ap     1.387386    84Ap     1.461828    85Ap     1.684486
      43App    2.037524    86Ap     2.047005    87Ap     2.075832
      44App    2.077720    45App    2.089330    88Ap     2.093341
      89Ap     2.135379    46App    2.230607    90Ap     2.289133
      91Ap     2.290932    47App    2.298043    92Ap     2.307713
      93Ap     2.381268    48App    2.393672    94Ap     2.439822
      49App    2.448042    95Ap     2.468202    96Ap     2.491212
      50App    2.501582    51App    2.541886    52App    2.571230
      97Ap     2.585506    53App    2.592455    98Ap     2.640337
      99Ap     2.664142   100Ap     2.697962   101Ap     2.705920
      54App    2.865349   102Ap     2.877222   103Ap     3.960337
     104Ap     4.993397   105Ap     5.762936    55App    7.414310
     106Ap     7.420045   107Ap     7.433853    56App    7.436782
      57App    7.440499   108Ap     7.455605    58App    7.503552
     109Ap     7.523399   110Ap     7.586078   111Ap     7.604921

    Final Occupation by Irrep:
             Ap   App
    DOCC [    20,    5 ]
    SOCC [     0,    1 ]

  @UHF Final Energy: -1394.31789780300278

   => Energetics <=

    Nuclear Repulsion Energy =            170.3186331734469832
    One-Electron Energy =               -2265.9254175723135631
    Two-Electron Energy =                 701.2888865958638007
    Total Energy =                      -1394.3178978030027793

  UHF NO Occupations:
  HONO-2 :   20 Ap 1.9975019
  HONO-1 :    5App 1.9867379
  HONO-0 :    6App 1.0000000
  LUNO+0 :    7App 0.0132621
  LUNO+1 :   21 Ap 0.0024981
  LUNO+2 :   22 Ap 0.0022480
  LUNO+3 :   23 Ap 0.0002673

Computation Completed

Properties will be evaluated at   0.000000,   0.000000,   0.000000 [a0]

Properties computed using the SCF density matrix

  Nuclear Dipole Moment: [e a0]
     X:    -1.6738      Y:     0.0001      Z:     0.0000

  Electronic Dipole Moment: [e a0]
     X:     5.8583      Y:    -0.0001      Z:     0.0000

  Dipole Moment: [e a0]
     X:     4.1845      Y:     0.0000      Z:     0.0000     Total:     4.1845

  Dipole Moment: [D]
     X:    10.6358      Y:     0.0001      Z:     0.0000     Total:    10.6358

*** tstop() called on d3-18.compute.lan at Fri Mar  5 13:51:28 2021
Module time:
	user time   =     270.45 seconds =       4.51 minutes
	system time =       3.47 seconds =       0.06 minutes
	total time  =         70 seconds =       1.17 minutes
Total time:
	user time   =     270.45 seconds =       4.51 minutes
	system time =       3.47 seconds =       0.06 minutes
	total time  =         70 seconds =       1.17 minutes
 MINTS: Wrapper to libmints.
   by Justin Turney

   Calculation information:
      Number of threads:                12
      Number of atoms:                   3
      Number of AO shells:              53
      Number of SO shells:              53
      Number of primitives:            287
      Number of atomic orbitals:       199
      Number of basis functions:       169

      Number of irreps:                  2
      Integral cutoff                 0.00e+00
      Number of functions per irrep: [ 111   58 ]

 OEINTS: Overlap, kinetic, potential, dipole, and quadrupole integrals
         stored in file 35.

      Computing two-electron integrals...done
      Computed 50981953 non-zero two-electron integrals.
        Stored in file 33.

*** tstart() called on d3-18.compute.lan
*** at Fri Mar  5 13:53:36 2021

	Wfn Parameters:
	--------------------
	Wavefunction         = CCSD_T
	Number of irreps     = 2
	Number of MOs        = 169
	Number of active MOs = 150
	AO-Basis             = NONE
	Semicanonical        = false
	Reference            = UHF
	Print Level          = 1

	IRREP	# MOs	# FZDC	# DOCC	# SOCC	# VIRT	# FZVR
	-----	-----	------	------	------	------	------
	 Ap	   111	    15	    5	    0	    91	    0
	 App	   58	    4	    1	    1	    52	    0
	Transforming integrals...
	IWL integrals will be deleted.
	(OO|OO)...
	Presorting SO-basis two-electron integrals.
	Sorting File: SO Ints (nn|nn) nbuckets = 1
	Transforming the one-electron integrals and constructing Fock matrices
	Starting AA/AB first half-transformation.
	Sorting AA/AB half-transformed integrals.
	Starting BB first half-transformation.
	Sorting BB half-transformed integrals.
	First half integral transformation complete.
	Starting AA second half-transformation.
	Starting AB second half-transformation.
	Starting BB second half-transformation.
	Two-electron integral transformation complete.
	(OO|OV)...
	Starting AA second half-transformation.
	Starting AB second half-transformation.
	Starting BB second half-transformation.
	Two-electron integral transformation complete.
	(OO|VV)...
	Starting AA second half-transformation.
	Starting AB second half-transformation.
	Starting BB second half-transformation.
	Two-electron integral transformation complete.
	(OV|OO)...
	Starting AA/AB first half-transformation.
	Sorting AA/AB half-transformed integrals.
	Starting BB first half-transformation.
	Sorting BB half-transformed integrals.
	First half integral transformation complete.
	Starting AA second half-transformation.
	Starting AB second half-transformation.
	Starting BB second half-transformation.
	Two-electron integral transformation complete.
	(OV|OV)...
	Starting AA second half-transformation.
	Starting AB second half-transformation.
	Starting BB second half-transformation.
	Two-electron integral transformation complete.
	(OV|VV)...
	Starting AA second half-transformation.
	Starting AB second half-transformation.
	Starting BB second half-transformation.
	Two-electron integral transformation complete.
	(VV|OO)...
	Starting AA/AB first half-transformation.
	Sorting AA/AB half-transformed integrals.
	Starting BB first half-transformation.
	Sorting BB half-transformed integrals.
	First half integral transformation complete.
	Starting AA second half-transformation.
	Starting AB second half-transformation.
	Starting BB second half-transformation.
	Two-electron integral transformation complete.
	(VV|OV)...
	Starting AA second half-transformation.
	Starting AB second half-transformation.
	Starting BB second half-transformation.
	Two-electron integral transformation complete.
	(VV|VV)...
	Starting AA second half-transformation.
	Starting AB second half-transformation.
	Starting BB second half-transformation.
	Two-electron integral transformation complete.
	Frozen core energy     =  -1534.20542033502306

	Size of irrep 0 of <AB|CD> integrals:     29.387 (MW) /    235.098 (MB)
	Size of irrep 1 of <AB|CD> integrals:     22.392 (MW) /    179.135 (MB)
	Total:                                    51.779 (MW) /    414.233 (MB)

	Size of irrep 0 of <ab|cd> integrals:     29.954 (MW) /    239.630 (MB)
	Size of irrep 1 of <ab|cd> integrals:     23.261 (MW) /    186.091 (MB)
	Total:                                    53.215 (MW) /    425.720 (MB)

	Size of irrep 0 of <Ab|Cd> integrals:    121.815 (MW) /    974.523 (MB)
	Size of irrep 1 of <Ab|Cd> integrals:     91.298 (MW) /    730.384 (MB)
	Total:                                   213.113 (MW) /   1704.907 (MB)

	Size of irrep 0 of <IA|BC> integrals:      6.141 (MW) /     49.125 (MB)
	Size of irrep 1 of <IA|BC> integrals:      4.183 (MW) /     33.465 (MB)
	Total:                                    10.324 (MW) /     82.590 (MB)

	Size of irrep 0 of <ia|bc> integrals:      5.634 (MW) /     45.070 (MB)
	Size of irrep 1 of <ia|bc> integrals:      3.434 (MW) /     27.472 (MB)
	Total:                                     9.068 (MW) /     72.542 (MB)

	Size of irrep 0 of <Ia|Bc> integrals:      6.192 (MW) /     49.534 (MB)
	Size of irrep 1 of <Ia|Bc> integrals:      4.271 (MW) /     34.169 (MB)
	Total:                                    10.463 (MW) /     83.703 (MB)

	Size of irrep 0 of <iA|bC> integrals:      5.596 (MW) /     44.766 (MB)
	Size of irrep 1 of <iA|bC> integrals:      3.354 (MW) /     26.830 (MB)
	Total:                                     8.950 (MW) /     71.597 (MB)

	Size of irrep 0 of tIjAb amplitudes:       0.298 (MW) /      2.384 (MB)
	Size of irrep 1 of tIjAb amplitudes:       0.143 (MW) /      1.147 (MB)
	Total:                                     0.441 (MW) /      3.531 (MB)

	Nuclear Rep. energy          =    170.31863317344698
	SCF energy                   =  -1394.31789780300278
	One-electron energy          =    -54.39586680709171
	Two-electron (AA) energy     =      5.83104941702467
	Two-electron (BB) energy     =      4.28788638495561
	Two-electron (AB) energy     =     13.84582036365316
	Two-electron energy          =     23.96475616563345
	Reference energy             =  -1394.31789780303438

*** tstop() called on d3-18.compute.lan at Fri Mar  5 13:55:32 2021
Module time:
	user time   =     335.23 seconds =       5.59 minutes
	system time =      30.54 seconds =       0.51 minutes
	total time  =        116 seconds =       1.93 minutes
Total time:
	user time   =     735.49 seconds =      12.26 minutes
	system time =      35.82 seconds =       0.60 minutes
	total time  =        314 seconds =       5.23 minutes
            **************************
            *                        *
            *        CCENERGY        *
            *                        *
            **************************

    Nuclear Rep. energy (wfn)     =  170.318633173446983
    SCF energy          (wfn)     = -1394.317897803002779
    Reference energy    (file100) = -1394.317897803034384

    Input parameters:
    -----------------
    Wave function   =     CCSD_T
    Reference wfn   =     UHF
    Brueckner       =     No
    Memory (Mbytes) =     46000.0
    Maxiter         =     50
    R_Convergence   =     1.0e-10
    E_Convergence   =     1.0e-10
    Restart         =     Yes
    DIIS            =     Yes
    AO Basis        =     NONE
    ABCD            =     NEW
    Cache Level     =     2
    Cache Type      =     LRU
    Print Level     =     1
    Num. of threads =     12
    # Amps to Print =     10
    Print MP2 Amps? =     No
    Analyze T2 Amps =     No
    Print Pair Ener =     No
    Local CC        =     No
    SCS-MP2         =     False
    SCSN-MP2        =     False
    SCS-CCSD        =     False

MP2 correlation energy -0.3330094289609388
                Solving CC Amplitude Equations
                ------------------------------
  Iter             Energy              RMS        T1Diag      D1Diag    New D1Diag    D2Diag
  ----     ---------------------    ---------   ----------  ----------  ----------   --------
     0        -0.333009428960939    0.000e+00    0.000000    0.000000    0.000000    0.000000
     1        -0.344437747282050    8.097e-02    0.016017    0.000000    0.000000    0.000000
     2        -0.354384176548160    2.535e-02    0.018583    0.000000    0.000000    0.000000
     3        -0.356367702715908    1.197e-02    0.022064    0.000000    0.000000    0.000000
     4        -0.356261389951758    3.174e-03    0.023061    0.000000    0.000000    0.000000
     5        -0.356235278037625    1.189e-03    0.023300    0.000000    0.000000    0.000000
     6        -0.356229506292369    5.157e-04    0.023368    0.000000    0.000000    0.000000
     7        -0.356226597372482    2.656e-04    0.023389    0.000000    0.000000    0.000000
     8        -0.356228147430448    1.475e-04    0.023392    0.000000    0.000000    0.000000
     9        -0.356230811297997    8.382e-05    0.023393    0.000000    0.000000    0.000000
    10        -0.356229329207399    4.384e-05    0.023395    0.000000    0.000000    0.000000
    11        -0.356229365186118    1.803e-05    0.023394    0.000000    0.000000    0.000000
    12        -0.356229083001806    8.747e-06    0.023395    0.000000    0.000000    0.000000
    13        -0.356228994464843    4.606e-06    0.023395    0.000000    0.000000    0.000000
    14        -0.356229026760590    2.616e-06    0.023395    0.000000    0.000000    0.000000
    15        -0.356229036710813    1.568e-06    0.023395    0.000000    0.000000    0.000000
    16        -0.356229037063874    7.801e-07    0.023394    0.000000    0.000000    0.000000

      * MP2 total energy                      = -1394.650907231995234
      * CCSD total energy                     = -1394.674126840714962
      * CCSD(T) total energy                     = -1394.695407040015880
*** Psi4 exiting successfully. Buy a developer a beer!
