                               Psi4 1.4a2.dev191

  ==> Input File <==

--------------------------------------------------------------------------
memory 10 GB

molecule  {
0 3
S
S 1 r1
S 1 r2 2 a1
r1 = 2.0
r2 = 2.1
a1 = 120.0
}

set {
reference uks
basis aug-cc-pvtz
g_convergence gau_verytight
dft_spherical_points 590
dft_radial_points 99
maxiter 500
basis_guess true
}

optimize('wb97x-d')
frequencies('wb97x-d')

--------------------------------------------------------------------------

    Molecular point group: cs
  Charge       = 0
  Multiplicity = 3
  Basis Set: 3-21G
    Blend: 3-21G
  Basis Set: (3-21G AUX)
    Blend: DEF2-SVP-JKFIT
  @DF-UKS Final Energy: -1188.52838654399920
    Total Energy =                      -1188.5283865439994315
    Molecular point group: cs
  Basis Set: AUG-CC-PVTZ
    Blend: AUG-CC-PVTZ
  Basis Set: (AUG-CC-PVTZ AUX)
    Blend: AUG-CC-PVTZ-JKFIT
  @DF-UKS Final Energy: -1194.54413088315050
    Total Energy =                      -1194.5441308831505012
  Basis Set: AUG-CC-PVTZ
    Blend: AUG-CC-PVTZ
  Basis Set: (AUG-CC-PVTZ AUX)
    Blend: AUG-CC-PVTZ-JKFIT
  Basis Set: 3-21G
    Blend: 3-21G
  Basis Set: (3-21G AUX)
    Blend: DEF2-SVP-JKFIT
  @DF-UKS Final Energy: -1188.52216480519337
    Total Energy =                      -1188.5221648051933698
  Basis Set: AUG-CC-PVTZ
  @DF-UKS Final Energy: -1194.55442434794782
    Total Energy =                      -1194.5544243479478155
  @DF-UKS Final Energy: -1188.51727032607050
    Total Energy =                      -1188.5172703260707294
  @DF-UKS Final Energy: -1194.55580709781475
    Total Energy =                      -1194.5558070978147498
  @DF-UKS Final Energy: -1188.49741860199174
    Total Energy =                      -1188.4974186019917397
  @DF-UKS Final Energy: -1194.54130435728348
    Total Energy =                      -1194.5413043572832521
  @DF-UKS Final Energy: -1188.51958449624362
    Total Energy =                      -1188.5195844962438514
  @DF-UKS Final Energy: -1194.55572187057714
    Total Energy =                      -1194.5557218705771447
  @DF-UKS Final Energy: -1188.51268956719014
    Total Energy =                      -1188.5126895671899092
  @DF-UKS Final Energy: -1194.54804008938390
    Total Energy =                      -1194.5480400893836759
  @DF-UKS Final Energy: -1188.51703459973669
    Total Energy =                      -1188.5170345997366894
  @DF-UKS Final Energy: -1194.55132530833271
    Total Energy =                      -1194.5513253083329346
  @DF-UKS Final Energy: -1188.40297940535038
    Total Energy =                      -1188.4029794053506066
  @DF-UKS Final Energy: -1194.47771661564184
    Total Energy =                      -1194.4777166156418389
  @DF-UKS Final Energy: -1188.50530472252467
    Total Energy =                      -1188.5053047225244427
  @DF-UKS Final Energy: -1194.54330522878035
    Total Energy =                      -1194.5433052287801274
  @DF-UKS Final Energy: -1188.50306852788617
    Total Energy =                      -1188.5030685278861711
  @DF-UKS Final Energy: -1194.54373087042677
    Total Energy =                      -1194.5437308704267707
  @DF-UKS Final Energy: -1188.53515065841680
    Total Energy =                      -1188.5351506584167964
  @DF-UKS Final Energy: -1194.56327271223336
    Total Energy =                      -1194.5632727122333563
  @DF-UKS Final Energy: -1188.53519353099682
    Total Energy =                      -1188.5351935309968212
  @DF-UKS Final Energy: -1194.56327274482510
    Total Energy =                      -1194.5632727448250989
  **** Optimization is complete! (in 39 steps) ****
    Final optimized geometry and variables:
  @DF-UKS Final Energy: -1188.52550488597990
    Total Energy =                      -1188.5255048859796716
  @DF-UKS Final Energy: -1194.55732223820814
    Total Energy =                      -1194.5573222382081440
  @DF-UKS Final Energy: -1188.52550488597990
    Total Energy =                      -1188.5255048859796716
  @DF-UKS Final Energy: -1194.55732223820814
    Total Energy =                      -1194.5573222382081440
  @DF-UKS Final Energy: -1188.52542518333280
    Total Energy =                      -1188.5254251833327999
  @DF-UKS Final Energy: -1194.55732032198512
    Total Energy =                      -1194.5573203219851166
  @DF-UKS Final Energy: -1188.52558417022988
    Total Energy =                      -1188.5255841702298767
  @DF-UKS Final Energy: -1194.55732389064360
    Total Energy =                      -1194.5573238906436018
  @DF-UKS Final Energy: -1188.52545068010022
    Total Energy =                      -1188.5254506801004482
  @DF-UKS Final Energy: -1194.55732087015622
    Total Energy =                      -1194.5573208701562180
  @DF-UKS Final Energy: -1188.52555867893943
    Total Energy =                      -1188.5255586789394329
  @DF-UKS Final Energy: -1194.55732329251987
    Total Energy =                      -1194.5573232925196407
  @DF-UKS Final Energy: -1188.52545291127353
    Total Energy =                      -1188.5254529112733053
    Blend: AUG-CC-PVTZ-JKFIT
  @DF-UKS Final Energy: -1194.55734791759869
    Total Energy =                      -1194.5573479175986904
  Basis Set: AUG-CC-PVTZ
    Blend: AUG-CC-PVTZ
  Basis Set: (AUG-CC-PVTZ AUX)
    Blend: AUG-CC-PVTZ-JKFIT
  Basis Set: 3-21G
    Blend: 3-21G
  Basis Set: (3-21G AUX)
    Blend: DEF2-SVP-JKFIT
  @DF-UKS Final Energy: -1188.52555673140478
    Total Energy =                      -1188.5255567314047767
    Molecular point group: cs
  Charge       = 0
  Multiplicity = 3
  Basis Set: AUG-CC-PVTZ
    Blend: AUG-CC-PVTZ
  Basis Set: (AUG-CC-PVTZ AUX)
    Blend: AUG-CC-PVTZ-JKFIT

    Orbital Energies [Eh]
    ---------------------

    Alpha Occupied:

       1Ap   -89.161229     2Ap   -89.107351     3Ap   -89.107347
       4Ap    -8.162859     5Ap    -8.113282     6Ap    -8.113278
       7Ap    -6.111391     1App   -6.109720     8Ap    -6.107134
       9Ap    -6.064987    10Ap    -6.064987    11Ap    -6.058686
      12Ap    -6.058685     2App   -6.056559     3App   -6.056559
      13Ap    -0.967530    14Ap    -0.841666    15Ap    -0.718752
      16Ap    -0.513403    17Ap    -0.500961     4App   -0.487416
       5App   -0.384909    18Ap    -0.379819    19Ap    -0.379035
       6App   -0.316461

    Alpha Virtual:

      20Ap     0.001031    21Ap     0.025795    22Ap     0.069932
      23Ap     0.071088    24Ap     0.078409     7App    0.091313
      25Ap     0.104752    26Ap     0.109954    27Ap     0.113262
       8App    0.114463     9App    0.117376    28Ap     0.137836
      29Ap     0.185351    10App    0.187722    30Ap     0.203545
      11App    0.204476    31Ap     0.214283    32Ap     0.256448
      33Ap     0.262862    12App    0.275791    34Ap     0.279217
      35Ap     0.290510    13App    0.300394    14App    0.350379
      36Ap     0.350761    37Ap     0.362035    38Ap     0.389259
      15App    0.390590    39Ap     0.413078    16App    0.449539
      40Ap     0.482025    17App    0.530163    41Ap     0.530668
      18App    0.549907    42Ap     0.551260    19App    0.556536
      43Ap     0.556834    44Ap     0.564083    45Ap     0.567991
      20App    0.570380    46Ap     0.587718    47Ap     0.603585
      21App    0.612627    48Ap     0.623240    49Ap     0.633410
      22App    0.638077    50Ap     0.641185    51Ap     0.666462
      52Ap     0.689044    23App    0.696392    24App    0.730899
      53Ap     0.737099    25App    0.745563    54Ap     0.789998
      26App    0.792415    55Ap     0.804667    56Ap     0.806667
      27App    0.813043    57Ap     0.852899    58Ap     0.886960
      59Ap     0.963580    28App    0.989865    29App    0.997730
      60Ap     1.033664    61Ap     1.039542    30App    1.041019
      31App    1.125157    62Ap     1.126022    63Ap     1.151870
      64Ap     1.169413    32App    1.194884    65Ap     1.212292
      33App    1.215796    66Ap     1.284565    67Ap     1.303576
      68Ap     1.407988    69Ap     1.495439    70Ap     1.778929
      34App    1.788358    35App    1.803827    71Ap     1.829023
      72Ap     1.845284    73Ap     1.851296    36App    1.858264
      37App    1.859685    74Ap     1.864077    75Ap     1.917596
      38App    1.930930    76Ap     1.970364    77Ap     1.990056
      39App    1.993353    40App    2.000196    78Ap     2.001851
      41App    2.004535    79Ap     2.032448    80Ap     2.041681
      42App    2.058106    43App    2.068041    81Ap     2.099223
      82Ap     2.128011    44App    2.139605    45App    2.158358
      83Ap     2.174011    84Ap     2.179773    46App    2.230492
      85Ap     2.262914    47App    2.263907    86Ap     2.279542
      48App    2.282182    87Ap     2.304709    49App    2.328709
      88Ap     2.343383    89Ap     2.407492    90Ap     2.428280
      91Ap     2.450540    92Ap     2.529273    50App    2.571730
      51App    2.582429    93Ap     2.636629    94Ap     2.659859
      95Ap     3.645375    96Ap     3.675922    97Ap     4.620554
      98Ap     5.259281    99Ap     5.624309

    Beta Occupied:

       1Ap   -89.158400     2Ap   -89.102753     3Ap   -89.102749
       4Ap    -8.160047     5Ap    -8.108618     6Ap    -8.108617
       7Ap    -6.109567     8Ap    -6.105628     1App   -6.099575
       9Ap    -6.058813    10Ap    -6.058813    11Ap    -6.050711
      12Ap    -6.050711     2App   -6.048641     3App   -6.048641
      13Ap    -0.946621    14Ap    -0.807521    15Ap    -0.677871
      16Ap    -0.498192    17Ap    -0.467521     4App   -0.447889
       5App   -0.336274    18Ap    -0.331747

    Beta Virtual:

      19Ap    -0.140728     6App   -0.090833    20Ap     0.018262
      21Ap     0.034235    22Ap     0.072998    23Ap     0.078262
      24Ap     0.079437     7App    0.093566    25Ap     0.107631
      26Ap     0.113942     8App    0.117602    27Ap     0.117851
       9App    0.122514    28Ap     0.141699    29Ap     0.188090
      10App    0.197109    30Ap     0.204951    11App    0.213937
      31Ap     0.227015    32Ap     0.267207    33Ap     0.267326
      34Ap     0.285054    12App    0.285477    35Ap     0.298138
      13App    0.312698    14App    0.355179    36Ap     0.357153
      37Ap     0.365157    38Ap     0.390996    15App    0.394812
      39Ap     0.418807    16App    0.456568    40Ap     0.490742
      41Ap     0.532715    17App    0.534585    42Ap     0.558654
      18App    0.560404    43Ap     0.561337    19App    0.564486
      44Ap     0.569597    45Ap     0.572517    20App    0.577156
      46Ap     0.596254    47Ap     0.610330    21App    0.628885
      48Ap     0.641387    49Ap     0.645094    22App    0.661427
      50Ap     0.665053    51Ap     0.678791    52Ap     0.695353
      23App    0.713630    24App    0.745509    53Ap     0.750339
      25App    0.754269    26App    0.797293    54Ap     0.797533
      55Ap     0.811743    56Ap     0.813818    27App    0.817387
      57Ap     0.863281    58Ap     0.896397    59Ap     0.968532
      28App    0.995592    29App    1.003583    60Ap     1.038322
      61Ap     1.042779    30App    1.046262    62Ap     1.130175
      31App    1.131104    63Ap     1.158225    64Ap     1.178522
      32App    1.201646    65Ap     1.220284    33App    1.224834
      66Ap     1.291952    67Ap     1.314788    68Ap     1.421056
      69Ap     1.508490    70Ap     1.796907    34App    1.806991
      35App    1.819986    71Ap     1.845624    72Ap     1.860282
      73Ap     1.863608    36App    1.872497    74Ap     1.875288
      37App    1.876817    75Ap     1.923556    38App    1.948257
      76Ap     1.981638    77Ap     2.003931    39App    2.010637
      78Ap     2.013143    40App    2.014071    41App    2.018332
      79Ap     2.049752    80Ap     2.064296    42App    2.082335
      43App    2.087043    81Ap     2.122352    82Ap     2.146898
      44App    2.171701    45App    2.181474    83Ap     2.189187
      84Ap     2.207697    46App    2.256112    47App    2.282710
      85Ap     2.284391    86Ap     2.300933    48App    2.301466
      87Ap     2.322584    49App    2.345153    88Ap     2.360666
      89Ap     2.423488    90Ap     2.438532    91Ap     2.460263
      92Ap     2.539166    50App    2.589285    51App    2.597064
      93Ap     2.650489    94Ap     2.676749    95Ap     3.651814
      96Ap     3.683105    97Ap     4.634112    98Ap     5.271030
      99Ap     5.632303

    Final Occupation by Irrep:
             Ap   App
    DOCC [    18,    5 ]
    SOCC [     1,    1 ]

  @DF-UKS Final Energy: -1194.55729645457268

   => Energetics <=

    Nuclear Repulsion Energy =            175.9290652965375443
    One-Electron Energy =               -1999.4488423518064337
    Two-Electron Energy =                 685.1790897472982351
    DFT Exchange-Correlation Energy =     -56.2164087253368834
    Empirical Dispersion Energy =          -0.0002004212654710
    VV10 Nonlocal Energy =                  0.0000000000000000
    Total Energy =                      -1194.5572964545729064

  UHF NO Occupations:
  HONO-2 :   18 Ap 1.9912277
  HONO-1 :   19 Ap 1.0000000
  HONO-0 :    6App 1.0000000
  LUNO+0 :   20 Ap 0.0087723
  LUNO+1 :    7App 0.0015622
  LUNO+2 :    8App 0.0009442
  LUNO+3 :   21 Ap 0.0004748

Computation Completed

Properties will be evaluated at   0.000000,   0.000000,   0.000000 [a0]

Properties computed using the SCF density matrix

  Nuclear Dipole Moment: [e a0]
     X:     0.0000      Y:     0.0000      Z:     0.0000

  Electronic Dipole Moment: [e a0]
     X:     0.2357      Y:     0.1734      Z:     0.0000

  Dipole Moment: [e a0]
     X:     0.2357      Y:     0.1734      Z:     0.0000     Total:     0.2926

  Dipole Moment: [D]
     X:     0.5991      Y:     0.4408      Z:     0.0000     Total:     0.7438

*** tstop() called on c2-18.compute.lan at Wed Feb  3 13:47:10 2021
Module time:
	user time   =      90.64 seconds =       1.51 minutes
	system time =       0.26 seconds =       0.00 minutes
	total time  =         91 seconds =       1.52 minutes
Total time:
	user time   =    6010.68 seconds =     100.18 minutes
	system time =      31.94 seconds =       0.53 minutes
	total time  =       6047 seconds =     100.78 minutes

*** tstart() called on c2-18.compute.lan
*** at Wed Feb  3 13:47:10 2021

         ------------------------------------------------------------
                                   SCF GRAD
                          Rob Parrish, Justin Turney,
                       Andy Simmonett, and Alex Sokolov
         ------------------------------------------------------------

  ==> Geometry <==

    Molecular point group: cs
    Full point group: Cs

    Geometry (in Angstrom), charge = 0, multiplicity = 3:

       Center              X                  Y                   Z               Mass
    ------------   -----------------  -----------------  -----------------  -----------------
         S            0.642110515203     0.472434280138     0.000000000000    31.972071174400
         S            0.642306605184    -1.545568533530     0.000000000000    31.972071174400
         S           -1.284417120388     1.073134253392     0.000000000000    31.972071174400

  Nuclear repulsion =  175.929065296537544

  ==> Basis Set <==

  Basis Set: AUG-CC-PVTZ
    Blend: AUG-CC-PVTZ
    Number of shells: 48
    Number of basis function: 150
    Number of Cartesian functions: 177
    Spherical Harmonics?: true
    Max angular momentum: 3

  ==> DFJKGrad: Density-Fitted SCF Gradients <==

    Gradient:                    1
    J tasked:                  Yes
    K tasked:                  Yes
    wK tasked:                 Yes
    Omega:               2.000E-01
    OpenMP threads:              1
    Integrals threads:           1
    Memory [MiB]:             7152
    Schwarz Cutoff:          0E+00
    Fitting Condition:       1E-10

   => Auxiliary Basis Set <=

  Basis Set: (AUG-CC-PVTZ AUX)
    Blend: AUG-CC-PVTZ-JKFIT
    Number of shells: 126
    Number of basis function: 438
    Number of Cartesian functions: 540
    Spherical Harmonics?: true
    Max angular momentum: 4

  ==> DFT Potential <==

   => Composite Functional: WB97X-D <=

    wB97X-D Hyb-GGA Exchange-Correlation Functional

    J.-D. Chai and M. Head-Gordon, Phys. Chem. Chem. Phys. 10, 6615 (2008)

    Deriv               =              1
    GGA                 =           TRUE
    Meta                =          FALSE

    Exchange Hybrid     =           TRUE
    MP2 Hybrid          =          FALSE

   => Exchange-Correlation Functionals <=

    1.0000   wB97D range-separated functional

   => Exact (HF) Exchange <=

    0.7780            HF,LR [omega = 0.2000]
    0.2220               HF

   => Molecular Quadrature <=

    Radial Scheme          =       TREUTLER
    Pruning Scheme         =           NONE
    Nuclear Scheme         =       TREUTLER

    BS radius alpha        =              1
    Pruning alpha          =              1
    Radial Points          =             99
    Spherical Points       =            590
    Total Points           =         170135
    Total Blocks           =           1391
    Max Points             =            256
    Max Functions          =            150
    Weights Tolerance      =       1.00E-15

  -Total Gradient:
     Atom            X                  Y                   Z
    ------   -----------------  -----------------  -----------------
       1       -0.001482173967    -0.001090997363     0.000000000000
       2        0.012996258670    -0.016097064963     0.000000000000
       3       -0.011500888427     0.017197772933     0.000000000000

*** tstop() called on c2-18.compute.lan at Wed Feb  3 13:47:29 2021
Module time:
	user time   =      18.67 seconds =       0.31 minutes
	system time =       0.04 seconds =       0.00 minutes
	total time  =         19 seconds =       0.32 minutes
Total time:
	user time   =    6029.35 seconds =     100.49 minutes
	system time =      31.98 seconds =       0.53 minutes
	total time  =       6066 seconds =     101.10 minutes

         ----------------------------------------------------------
                                   FINDIF
                     R. A. King and Jonathon Misiewicz
         ---------------------------------------------------------

  Computing second-derivative from gradients using projected,
  symmetry-adapted, cartesian coordinates.

  7 gradients passed in, including the reference geometry.
  Generating complete list of displacements from unique ones.

-------------------------------------------------------------

  ==> Harmonic Vibrational Analysis <==

  non-mass-weighted Hessian:       Symmetric? True   Hermitian? True   Lin Dep Dim?  6 (0)
  projection of translations (True) and rotations (True) removed 6 degrees of freedom (6)
  total projector:                 Symmetric? True   Hermitian? True   Lin Dep Dim?  6 (6)
  mass-weighted Hessian:           Symmetric? True   Hermitian? True   Lin Dep Dim?  6 (0)
  pre-proj  low-frequency mode:    0.0000i [cm^-1]
  pre-proj  low-frequency mode:    0.0000i [cm^-1]
  pre-proj  low-frequency mode:    0.0000i [cm^-1]
  pre-proj  low-frequency mode:    0.0000i [cm^-1]
  pre-proj  low-frequency mode:    0.0000  [cm^-1]
  pre-proj  low-frequency mode:    0.0000  [cm^-1]
  pre-proj  all modes:['0.0000i' '0.0000i' '0.0000i' '0.0000i' '0.0000' '0.0000' '167.8175'
 '559.2876' '611.6966']
  projected mass-weighted Hessian: Symmetric? True   Hermitian? True   Lin Dep Dim?  6 (6)
  post-proj low-frequency mode:    0.0000i [cm^-1] (TR)
  post-proj low-frequency mode:    0.0000i [cm^-1] (TR)
  post-proj low-frequency mode:    0.0000i [cm^-1] (TR)
  post-proj low-frequency mode:    0.0000  [cm^-1] (TR)
  post-proj low-frequency mode:    0.0000  [cm^-1] (TR)
  post-proj low-frequency mode:    0.0000  [cm^-1] (TR)
  post-proj  all modes:['0.0000i' '0.0000i' '0.0000i' '0.0000' '0.0000' '0.0000' '167.8175'
 '559.2876' '611.6966']

  Vibration                       7                   8                   9
  Freq [cm^-1]                 167.8175            559.2876            611.6966
  Irrep                           Ap                  Ap                  Ap
  Reduced mass [u]             31.9721             31.9721             31.9721
  Force const [mDyne/A]         0.5305              5.8924              7.0484
  Turning point v=0 [a0]        0.1498              0.0821              0.0785
  RMS dev v=0 [a0 u^1/2]        0.5989              0.3281              0.3137
  Char temp [K]                241.4520            804.6904            880.0952
  ----------------------------------------------------------------------------------
      1   S               -0.35 -0.26  0.00    0.56  0.41 -0.00   -0.45  0.61 -0.00
      2   S                0.53 -0.35 -0.00   -0.06 -0.51 -0.00   -0.00 -0.47 -0.00
      3   S               -0.18  0.61  0.00   -0.50  0.10  0.00    0.45 -0.14  0.00

  ==> Thermochemistry Components <==

  Entropy, S
    Electronic S            2.183 [cal/(mol K)]        9.134 [J/(mol K)]       0.00347910 [mEh/K] (multiplicity = 3)
    Translational S        39.594 [cal/(mol K)]      165.660 [J/(mol K)]       0.06309659 [mEh/K] (mol. weight = 95.9162 [u], P = 101325.00 [Pa])
    Rotational S           25.350 [cal/(mol K)]      106.064 [J/(mol K)]       0.04039779 [mEh/K] (symmetry no. = 1)
    Vibrational S           3.415 [cal/(mol K)]       14.288 [J/(mol K)]       0.00544217 [mEh/K]
  Total S                  70.542 [cal/(mol K)]      295.147 [J/(mol K)]       0.11241564 [mEh/K]
  Correction S              0.000 [cal/(mol K)]        0.000 [J/(mol K)]       0.00000000 [mEh/K]

  Constant volume heat capacity, Cv
    Electronic Cv           0.000 [cal/(mol K)]        0.000 [J/(mol K)]       0.00000000 [mEh/K]
    Translational Cv        2.981 [cal/(mol K)]       12.472 [J/(mol K)]       0.00475022 [mEh/K]
    Rotational Cv           2.981 [cal/(mol K)]       12.472 [J/(mol K)]       0.00475022 [mEh/K]
    Vibrational Cv          4.009 [cal/(mol K)]       16.772 [J/(mol K)]       0.00638804 [mEh/K]
  Total Cv                  9.970 [cal/(mol K)]       41.715 [J/(mol K)]       0.01588847 [mEh/K]
  Correction Cv             0.000 [cal/(mol K)]        0.000 [J/(mol K)]       0.00000000 [mEh/K]

  Constant pressure heat capacity, Cp
    Electronic Cp           0.000 [cal/(mol K)]        0.000 [J/(mol K)]       0.00000000 [mEh/K]
    Translational Cp        4.968 [cal/(mol K)]       20.786 [J/(mol K)]       0.00791703 [mEh/K]
    Rotational Cp           2.981 [cal/(mol K)]       12.472 [J/(mol K)]       0.00475022 [mEh/K]
    Vibrational Cp          4.009 [cal/(mol K)]       16.772 [J/(mol K)]       0.00638804 [mEh/K]
  Total Cp                 11.957 [cal/(mol K)]       50.030 [J/(mol K)]       0.01905528 [mEh/K]
  Correction Cp             0.000 [cal/(mol K)]        0.000 [J/(mol K)]       0.00000000 [mEh/K]

  ==> Thermochemistry Energy Analysis <==

  Raw electronic energy, E0
  Total E0, Electronic energy at well bottom at 0 [K]                -1194.55732224 [Eh]

  Zero-point energy, ZPE_vib = Sum_i nu_i / 2
    Electronic ZPE          0.000 [kcal/mol]        0.000 [kJ/mol]       0.00000000 [Eh]
    Translational ZPE       0.000 [kcal/mol]        0.000 [kJ/mol]       0.00000000 [Eh]
    Rotational ZPE          0.000 [kcal/mol]        0.000 [kJ/mol]       0.00000000 [Eh]
    Vibrational ZPE         1.914 [kcal/mol]        8.008 [kJ/mol]       0.00305001 [Eh]         669.401 [cm^-1]
  Correction ZPE            1.914 [kcal/mol]        8.008 [kJ/mol]       0.00305001 [Eh]         669.401 [cm^-1]
  Total ZPE, Electronic energy at 0 [K]                              -1194.55427222 [Eh]

  Thermal Energy, E (includes ZPE)
    Electronic E            0.000 [kcal/mol]        0.000 [kJ/mol]       0.00000000 [Eh]
    Translational E         0.889 [kcal/mol]        3.718 [kJ/mol]       0.00141628 [Eh]
    Rotational E            0.889 [kcal/mol]        3.718 [kJ/mol]       0.00141628 [Eh]
    Vibrational E           2.510 [kcal/mol]       10.503 [kJ/mol]       0.00400037 [Eh]
  Correction E              4.288 [kcal/mol]       17.940 [kJ/mol]       0.00683292 [Eh]
  Total E, Electronic energy at  298.15 [K]                          -1194.55048932 [Eh]

  Enthalpy, H_trans = E_trans + k_B * T
    Electronic H            0.000 [kcal/mol]        0.000 [kJ/mol]       0.00000000 [Eh]
    Translational H         1.481 [kcal/mol]        6.197 [kJ/mol]       0.00236046 [Eh]
    Rotational H            0.889 [kcal/mol]        3.718 [kJ/mol]       0.00141628 [Eh]
    Vibrational H           2.510 [kcal/mol]       10.503 [kJ/mol]       0.00400037 [Eh]
  Correction H              4.880 [kcal/mol]       20.419 [kJ/mol]       0.00777711 [Eh]
  Total H, Enthalpy at  298.15 [K]                                   -1194.54954513 [Eh]

  Gibbs free energy, G = H - T * S
    Electronic G           -0.651 [kcal/mol]       -2.723 [kJ/mol]      -0.00103729 [Eh]
    Translational G       -10.324 [kcal/mol]      -43.194 [kJ/mol]      -0.01645179 [Eh]
    Rotational G           -6.669 [kcal/mol]      -27.905 [kJ/mol]      -0.01062833 [Eh]
    Vibrational G           1.492 [kcal/mol]        6.243 [kJ/mol]       0.00237779 [Eh]
  Correction G            -16.152 [kcal/mol]      -67.579 [kJ/mol]      -0.02573962 [Eh]
  Total G, Free enthalpy at  298.15 [K]                              -1194.58306186 [Eh]

*** Psi4 exiting successfully. Buy a developer a beer!
