                               Psi4 1.3.2 release

  ==> Input File <==

--------------------------------------------------------------------------
memory 46 GB

basis jerome {
assign pot
assign S aug-cc-pV(T+d)Z

[pot]
spherical
****
 K  0
 S 23 1.00
    2.709796E+07     4.136110E-07
    3.592856E+06     3.860330E-06
    7.222638E+05     2.394640E-05
    1.833976E+05     1.157540E-04
    5.464812E+04     4.697010E-04
    1.830913E+04     1.673720E-03
    6.712501E+03     5.370450E-03
    2.643719E+03     1.572510E-02
    1.103835E+03     4.193360E-02
    4.836777E+02     9.987620E-02
    2.206245E+02     2.019680E-01
    1.041117E+02     3.146270E-01
    5.052749E+01     3.107540E-01
    2.485247E+01     1.421920E-01
    1.128102E+01     1.658490E-02
    5.510166E+00    -2.759760E-04
    2.706914E+00     5.158310E-04
    1.122807E+00    -2.268950E-04
    5.236385E-01     6.652980E-05
    2.355180E-01    -3.685150E-05
    4.157977E-02     1.925250E-05
    2.555456E-02    -2.108420E-05
    1.471495E-02     7.044600E-06
 S 23 1.00
    2.709796E+07    -1.188290E-07
    3.592856E+06    -1.108550E-06
    7.222638E+05    -6.881230E-06
    1.833976E+05    -3.324150E-05
    5.464812E+04    -1.350850E-04
    1.830913E+04    -4.814570E-04
    6.712501E+03    -1.552620E-03
    2.643719E+03    -4.578330E-03
    1.103835E+03    -1.247930E-02
    4.836777E+02    -3.094650E-02
    2.206245E+02    -6.855530E-02
    1.041117E+02    -1.268300E-01
    5.052749E+01    -1.745020E-01
    2.485247E+01    -9.089560E-02
    1.128102E+01     2.506960E-01
    5.510166E+00     5.589630E-01
    2.706914E+00     3.284370E-01
    1.122807E+00     3.392170E-02
    5.236385E-01    -2.100280E-03
    2.355180E-01     1.383960E-03
    4.157977E-02    -5.315630E-04
    2.555456E-02     5.770310E-04
    1.471495E-02    -1.931440E-04
 S 23 1.00
    2.709796E+07     3.917470E-08
    3.592856E+06     3.650640E-07
    7.222638E+05     2.269460E-06
    1.833976E+05     1.094290E-05
    5.464812E+04     4.457360E-05
    1.830913E+04     1.584480E-04
    6.712501E+03     5.128440E-04
    2.643719E+03     1.507690E-03
    1.103835E+03     4.136940E-03
    4.836777E+02     1.024690E-02
    2.206245E+02     2.306520E-02
    1.041117E+02     4.308900E-02
    5.052749E+01     6.238120E-02
    2.485247E+01     3.270420E-02
    1.128102E+01    -1.021980E-01
    5.510166E+00    -3.317970E-01
    2.706914E+00    -3.030100E-01
    1.122807E+00     3.098410E-01
    5.236385E-01     6.732700E-01
    2.355180E-01     2.812200E-01
    4.157977E-02     9.376240E-03
    2.555456E-02    -6.955720E-03
    1.471495E-02     2.069460E-03
 S 23 1.00
    2.709796E+07    -7.564440E-09
    3.592856E+06    -7.055390E-08
    7.222638E+05    -4.380820E-07
    1.833976E+05    -2.115540E-06
    5.464812E+04    -8.601300E-06
    1.830913E+04    -3.064440E-05
    6.712501E+03    -9.892550E-05
    2.643719E+03    -2.917760E-04
    1.103835E+03    -7.977860E-04
    4.836777E+02    -1.985820E-03
    2.206245E+02    -4.449740E-03
    1.041117E+02    -8.390260E-03
    5.052749E+01    -1.206000E-02
    2.485247E+01    -6.568410E-03
    1.128102E+01     2.061430E-02
    5.510166E+00     6.770060E-02
    2.706914E+00     6.639570E-02
    1.122807E+00    -8.237770E-02
    5.236385E-01    -1.727150E-01
    2.355180E-01    -2.310290E-01
    4.157977E-02     5.090040E-01
    2.555456E-02     3.472180E-01
    1.471495E-02     2.809620E-01
 S 1 1.00
    2.555456E-02     1.000000E+00
 S 1 1.00
    1.471495E-02     1.000000E+00
 S 1 1.00
    8.470000E-03     1.000000E+00
 P 16 1.00
    9.533309E+03     4.212010E-05
    1.852081E+03     5.068300E-04
    5.464251E+02     3.311700E-03
    1.966947E+02     1.536840E-02
    7.964112E+01     5.457060E-02
    3.488324E+01     1.473880E-01
    1.604479E+01     2.879240E-01
    7.575632E+00     3.750810E-01
    3.672548E+00     2.545160E-01
    1.771130E+00     6.059280E-02
    8.515199E-01     2.508370E-03
    4.016017E-01     6.688870E-04
    1.851933E-01    -1.486150E-04
    5.523390E-02     4.936010E-05
    2.431085E-02    -3.513850E-05
    1.080339E-02     1.171450E-05
 P 16 1.00
    9.533309E+03    -1.280760E-05
    1.852081E+03    -1.547870E-04
    5.464251E+02    -1.010940E-03
    1.966947E+02    -4.738330E-03
    7.964112E+01    -1.703260E-02
    3.488324E+01    -4.754130E-02
    1.604479E+01    -9.560810E-02
    7.575632E+00    -1.337000E-01
    3.672548E+00    -7.425060E-02
    1.771130E+00     1.646810E-01
    8.515199E-01     4.057630E-01
    4.016017E-01     4.113600E-01
    1.851933E-01     1.734240E-01
    5.523390E-02     1.253640E-02
    2.431085E-02    -3.267140E-03
    1.080339E-02     1.039680E-03
 P 16 1.00
    9.533309E+03     1.764010E-06
    1.852081E+03     2.124880E-05
    5.464251E+02     1.392500E-04
    1.966947E+02     6.509140E-04
    7.964112E+01     2.349940E-03
    3.488324E+01     6.547470E-03
    1.604479E+01     1.326270E-02
    7.575632E+00     1.848520E-02
    3.672548E+00     1.025530E-02
    1.771130E+00    -2.652150E-02
    8.515199E-01    -6.086460E-02
    4.016017E-01    -7.474220E-02
    1.851933E-01    -4.870880E-02
    5.523390E-02     2.245720E-01
    2.431085E-02     5.839280E-01
    1.080339E-02     2.980960E-01
 P 1 1.00
    5.523390E-02     1.000000E+00
 P 1 1.00
    1.080339E-02     1.000000E+00
 P 1 1.00
    4.800000E-03     1.000000E+00
 D 6 1.00
    5.670903E+00     8.285900E-03
    1.459042E+00     2.332530E-02
    5.431827E-01     4.878080E-02
    1.346875E-01     7.349020E-02
    5.516013E-02     2.387630E-01
    1.501876E-02     8.253200E-01
 D 1 1.00
    5.516013E-02     1.000000E+00
 D 1 1.00
    1.501876E-02     1.000000E+00
 D 1 1.00
    6.010000E-03     1.000000E+00
 F 1 1.00
    8.493750E-02     1.000000E+00
 F 1 1.00
    3.398000E-02     1.000000E+00
 ****
}

molecule  {
0 2
S   -1.195442717505    1.038227395392    0.000000000000
S   -1.195299074068   -1.038117076598    0.000000000000
K    1.961747831831   -0.000090523225    0.000000000000
}
set {
basis jerome
reference uhf
g_convergence gau_verytight
e_convergence 10
scf_type pk
freeze_core true
geom_maxiter 100
}

set ccenergy {
e_convergence 10
r_convergence 10
}

e = energy('ccsd(t)')

print_out('Stephenergy {}'.format(e))

--------------------------------------------------------------------------

    Molecular point group: cs

    Geometry (in Angstrom), charge = 0, multiplicity = 2:

       Center              X                  Y                   Z               Mass
    ------------   -----------------  -----------------  -----------------  -----------------
         S           -1.195442717505     1.038227395392     0.000000000000    31.972071174400
         S           -1.195299074068    -1.038117076598     0.000000000000    31.972071174400
         K            1.961747831831    -0.000090523225     0.000000000000    38.963706486400

  Charge       = 0
  Multiplicity = 2
  Basis Set: JEROME
    Blend: AUG-CC-PV(T+D)Z + POT

    Orbital Energies [Eh]
    ---------------------

    Alpha Occupied:

       1Ap  -133.559637     2Ap   -91.906603     3Ap   -91.906587
       4Ap   -14.515893     1App  -11.545910     5Ap   -11.545827
       6Ap   -11.545754     7Ap    -8.904125     8Ap    -8.903954
       2App   -6.593111     3App   -6.593086     9Ap    -6.583007
      10Ap    -6.582638    11Ap    -6.581449    12Ap    -6.581423
      13Ap    -1.773860     4App   -0.982955    14Ap    -0.981739
      15Ap    -0.981397    16Ap    -0.944691    17Ap    -0.757502
       5App   -0.414068    18Ap    -0.402888    19Ap    -0.386217
       6App   -0.295978    20Ap    -0.260561

    Alpha Virtual:

      21Ap    -0.019898     7App    0.002172    22Ap     0.002630
      23Ap     0.005694    24Ap     0.016456     8App    0.017141
      25Ap     0.017264     9App    0.019894    26Ap     0.020823
      27Ap     0.022363    10App    0.022864    28Ap     0.028726
      29Ap     0.032855    30Ap     0.051010    11App    0.051140
      31Ap     0.055475    12App    0.058848    32Ap     0.061864
      13App    0.073584    33Ap     0.074484    34Ap     0.088214
      35Ap     0.104497    36Ap     0.108420    37Ap     0.125503
      14App    0.125672    38Ap     0.128645    39Ap     0.128782
      15App    0.129772    16App    0.133149    40Ap     0.133829
      41Ap     0.150436    17App    0.152720    42Ap     0.153540
      18App    0.167031    43Ap     0.170577    44Ap     0.174857
      19App    0.178463    20App    0.186396    45Ap     0.206848
      46Ap     0.207620    47Ap     0.221486    21App    0.233525
      48Ap     0.244628    49Ap     0.267882    50Ap     0.310713
      51Ap     0.310889    22App    0.337557    52Ap     0.350663
      53Ap     0.362695    23App    0.375759    24App    0.381792
      54Ap     0.383549    25App    0.386398    55Ap     0.391628
      56Ap     0.391683    26App    0.394177    57Ap     0.406250
      27App    0.407371    58Ap     0.428291    59Ap     0.431062
      60Ap     0.439845    28App    0.452922    29App    0.456736
      61Ap     0.463041    30App    0.466753    62Ap     0.488096
      63Ap     0.514916    64Ap     0.537825    31App    0.666901
      32App    0.703385    65Ap     0.709128    33App    0.711267
      66Ap     0.730723    67Ap     0.746964    68Ap     0.785638
      34App    0.801219    69Ap     0.814184    70Ap     0.815400
      35App    0.850900    71Ap     0.856572    72Ap     0.870970
      36App    0.892306    73Ap     0.909449    37App    0.914863
      74Ap     0.947908    75Ap     0.948199    76Ap     0.962307
      38App    1.012363    77Ap     1.019119    39App    1.048341
      78Ap     1.052798    79Ap     1.079077    40App    1.161918
      80Ap     1.197204    81Ap     1.197946    41App    1.202643
      82Ap     1.218778    42App    1.363601    83Ap     1.395240
      84Ap     1.462284    85Ap     1.677319    43App    2.031451
      86Ap     2.036084    44App    2.064653    87Ap     2.067245
      45App    2.079039    88Ap     2.096786    89Ap     2.132102
      46App    2.214699    90Ap     2.284064    47App    2.287129
      91Ap     2.291977    92Ap     2.312038    93Ap     2.372140
      48App    2.378757    94Ap     2.413057    49App    2.421766
      95Ap     2.450541    96Ap     2.473528    50App    2.485778
      51App    2.504878    52App    2.561533    97Ap     2.581738
      53App    2.585128    98Ap     2.669009    99Ap     2.685742
     100Ap     2.707732   101Ap     2.727188    54App    2.868107
     102Ap     2.899267   103Ap     3.990447   104Ap     4.956097
     105Ap     5.750238    55App    7.417025   106Ap     7.419795
     107Ap     7.436085    56App    7.436358    57App    7.438759
     108Ap     7.461776    58App    7.509763   109Ap     7.532481
     110Ap     7.597371   111Ap     7.607759

    Beta Occupied:

       1Ap  -133.559660     2Ap   -91.901014     3Ap   -91.901000
       4Ap   -14.515924     1App  -11.545944     5Ap   -11.545862
       6Ap   -11.545785     7Ap    -8.898050     8Ap    -8.897842
       9Ap    -6.580306    10Ap    -6.579924    11Ap    -6.577907
      12Ap    -6.577883     2App   -6.568643     3App   -6.568606
      13Ap    -1.774021     4App   -0.983115    14Ap    -0.981886
      15Ap    -0.980415    16Ap    -0.906440    17Ap    -0.686891
      18Ap    -0.386958    19Ap    -0.377688     5App   -0.289370
      20Ap    -0.247563

    Beta Virtual:

      21Ap    -0.019909     6App    0.002202    22Ap     0.002644
      23Ap     0.005682    24Ap     0.016451     7App    0.016970
      25Ap     0.017265     8App    0.019936    26Ap     0.020847
      27Ap     0.022412     9App    0.022957    28Ap     0.028728
      29Ap     0.032765    10App    0.047004    30Ap     0.050978
      31Ap     0.055744    11App    0.059302    32Ap     0.061831
      12App    0.065091    13App    0.073768    33Ap     0.074678
      34Ap     0.087877    35Ap     0.104281    36Ap     0.110123
      37Ap     0.125703    14App    0.125788    38Ap     0.128607
      39Ap     0.129633    15App    0.129695    40Ap     0.133873
      16App    0.134981    41Ap     0.150295    42Ap     0.153792
      17App    0.164168    18App    0.171838    43Ap     0.172131
      44Ap     0.174536    19App    0.183770    20App    0.187112
      45Ap     0.207576    46Ap     0.212304    47Ap     0.224322
      21App    0.233744    48Ap     0.245242    49Ap     0.267055
      50Ap     0.313713    51Ap     0.317340    52Ap     0.351906
      22App    0.356554    53Ap     0.366871    54Ap     0.383858
      23App    0.384531    24App    0.388648    25App    0.389661
      55Ap     0.391532    56Ap     0.395682    26App    0.396031
      27App    0.407416    57Ap     0.408603    58Ap     0.430942
      59Ap     0.433719    60Ap     0.442861    28App    0.462580
      61Ap     0.468826    29App    0.470033    30App    0.475484
      62Ap     0.488978    63Ap     0.518521    64Ap     0.538558
      31App    0.686341    65Ap     0.716881    66Ap     0.736504
      32App    0.739701    33App    0.741880    67Ap     0.749420
      68Ap     0.798378    69Ap     0.814468    34App    0.818257
      70Ap     0.831406    71Ap     0.868869    35App    0.885517
      72Ap     0.895513    73Ap     0.915057    36App    0.921942
      37App    0.925367    74Ap     0.951615    75Ap     0.960308
      76Ap     0.966157    38App    1.024785    77Ap     1.030158
      78Ap     1.054720    39App    1.058918    79Ap     1.085421
      40App    1.174095    80Ap     1.196910    81Ap     1.207434
      41App    1.209212    82Ap     1.220856    42App    1.379775
      83Ap     1.397274    84Ap     1.475190    85Ap     1.692740
      43App    2.046667    86Ap     2.050802    44App    2.079692
      87Ap     2.082265    45App    2.094965    88Ap     2.098956
      89Ap     2.134306    46App    2.236767    90Ap     2.288908
      91Ap     2.294130    47App    2.303911    92Ap     2.314825
      93Ap     2.385167    48App    2.391465    94Ap     2.425096
      49App    2.454128    95Ap     2.461891    96Ap     2.495881
      50App    2.508778    51App    2.531936    52App    2.586072
      97Ap     2.597931    53App    2.601401    98Ap     2.674527
      99Ap     2.690236   100Ap     2.712218   101Ap     2.733003
      54App    2.889204   102Ap     2.901976   103Ap     3.993946
     104Ap     4.967265   105Ap     5.760577    55App    7.423221
     106Ap     7.426118   107Ap     7.442615    56App    7.442877
      57App    7.444815   108Ap     7.462853    58App    7.515721
     109Ap     7.533361   110Ap     7.599313   111Ap     7.609642

    Final Occupation by Irrep:
             Ap   App
    DOCC [    20,    5 ]
    SOCC [     0,    1 ]

  @UHF Final Energy: -1394.31349333955905

   => Energetics <=

    Nuclear Repulsion Energy =            162.0536532691795060
    One-Electron Energy =               -2249.3247375251798985
    Two-Electron Energy =                 692.9575909164414043
    Total Energy =                      -1394.3134933395590451

  UHF NO Occupations:
  HONO-2 :   20 Ap 1.9974858
  HONO-1 :    5App 1.9869146
  HONO-0 :    6App 1.0000000
  LUNO+0 :    7App 0.0130854
  LUNO+1 :   21 Ap 0.0025142
  LUNO+2 :   22 Ap 0.0022671
  LUNO+3 :   23 Ap 0.0003117

Computation Completed

Properties will be evaluated at   0.000000,   0.000000,   0.000000 [a0]

Properties computed using the SCF density matrix

  Nuclear Dipole Moment: [e a0]
     X:    -1.8494      Y:     0.0001      Z:     0.0000

  Electronic Dipole Moment: [e a0]
     X:     6.6350      Y:    -0.0001      Z:     0.0000

  Dipole Moment: [e a0]
     X:     4.7856      Y:    -0.0000      Z:     0.0000     Total:     4.7856

  Dipole Moment: [D]
     X:    12.1637      Y:    -0.0001      Z:     0.0000     Total:    12.1637

*** tstop() called on d3-18.compute.lan at Fri Mar  5 17:14:39 2021
Module time:
	user time   =     261.89 seconds =       4.36 minutes
	system time =       3.08 seconds =       0.05 minutes
	total time  =         69 seconds =       1.15 minutes
Total time:
	user time   =     261.89 seconds =       4.36 minutes
	system time =       3.08 seconds =       0.05 minutes
	total time  =         69 seconds =       1.15 minutes
 MINTS: Wrapper to libmints.
   by Justin Turney

   Calculation information:
      Number of threads:                12
      Number of atoms:                   3
      Number of AO shells:              53
      Number of SO shells:              53
      Number of primitives:            287
      Number of atomic orbitals:       199
      Number of basis functions:       169

      Number of irreps:                  2
      Integral cutoff                 0.00e+00
      Number of functions per irrep: [ 111   58 ]

 OEINTS: Overlap, kinetic, potential, dipole, and quadrupole integrals
         stored in file 35.

      Computing two-electron integrals...done
      Computed 51001718 non-zero two-electron integrals.
        Stored in file 33.

*** tstart() called on d3-18.compute.lan
*** at Fri Mar  5 17:16:46 2021

	Wfn Parameters:
	--------------------
	Wavefunction         = CCSD_T
	Number of irreps     = 2
	Number of MOs        = 169
	Number of active MOs = 150
	AO-Basis             = NONE
	Semicanonical        = false
	Reference            = UHF
	Print Level          = 1

	IRREP	# MOs	# FZDC	# DOCC	# SOCC	# VIRT	# FZVR
	-----	-----	------	------	------	------	------
	 Ap	   111	    15	    5	    0	    91	    0
	 App	   58	    4	    1	    1	    52	    0
	Transforming integrals...
	IWL integrals will be deleted.
	(OO|OO)...
	Presorting SO-basis two-electron integrals.
	Sorting File: SO Ints (nn|nn) nbuckets = 1
	Transforming the one-electron integrals and constructing Fock matrices
	Starting AA/AB first half-transformation.
	Sorting AA/AB half-transformed integrals.
	Starting BB first half-transformation.
	Sorting BB half-transformed integrals.
	First half integral transformation complete.
	Starting AA second half-transformation.
	Starting AB second half-transformation.
	Starting BB second half-transformation.
	Two-electron integral transformation complete.
	(OO|OV)...
	Starting AA second half-transformation.
	Starting AB second half-transformation.
	Starting BB second half-transformation.
	Two-electron integral transformation complete.
	(OO|VV)...
	Starting AA second half-transformation.
	Starting AB second half-transformation.
	Starting BB second half-transformation.
	Two-electron integral transformation complete.
	(OV|OO)...
	Starting AA/AB first half-transformation.
	Sorting AA/AB half-transformed integrals.
	Starting BB first half-transformation.
	Sorting BB half-transformed integrals.
	First half integral transformation complete.
	Starting AA second half-transformation.
	Starting AB second half-transformation.
	Starting BB second half-transformation.
	Two-electron integral transformation complete.
	(OV|OV)...
	Starting AA second half-transformation.
	Starting AB second half-transformation.
	Starting BB second half-transformation.
	Two-electron integral transformation complete.
	(OV|VV)...
	Starting AA second half-transformation.
	Starting AB second half-transformation.
	Starting BB second half-transformation.
	Two-electron integral transformation complete.
	(VV|OO)...
	Starting AA/AB first half-transformation.
	Sorting AA/AB half-transformed integrals.
	Starting BB first half-transformation.
	Sorting BB half-transformed integrals.
	First half integral transformation complete.
	Starting AA second half-transformation.
	Starting AB second half-transformation.
	Starting BB second half-transformation.
	Two-electron integral transformation complete.
	(VV|OV)...
	Starting AA second half-transformation.
	Starting AB second half-transformation.
	Starting BB second half-transformation.
	Two-electron integral transformation complete.
	(VV|VV)...
	Starting AA second half-transformation.
	Starting AB second half-transformation.
	Starting BB second half-transformation.
	Two-electron integral transformation complete.
	Frozen core energy     =  -1525.24984100300435

	Size of irrep 0 of <AB|CD> integrals:     29.387 (MW) /    235.098 (MB)
	Size of irrep 1 of <AB|CD> integrals:     22.392 (MW) /    179.135 (MB)
	Total:                                    51.779 (MW) /    414.233 (MB)

	Size of irrep 0 of <ab|cd> integrals:     29.954 (MW) /    239.630 (MB)
	Size of irrep 1 of <ab|cd> integrals:     23.261 (MW) /    186.091 (MB)
	Total:                                    53.215 (MW) /    425.720 (MB)

	Size of irrep 0 of <Ab|Cd> integrals:    121.815 (MW) /    974.523 (MB)
	Size of irrep 1 of <Ab|Cd> integrals:     91.298 (MW) /    730.384 (MB)
	Total:                                   213.113 (MW) /   1704.907 (MB)

	Size of irrep 0 of <IA|BC> integrals:      6.141 (MW) /     49.125 (MB)
	Size of irrep 1 of <IA|BC> integrals:      4.183 (MW) /     33.465 (MB)
	Total:                                    10.324 (MW) /     82.590 (MB)

	Size of irrep 0 of <ia|bc> integrals:      5.634 (MW) /     45.070 (MB)
	Size of irrep 1 of <ia|bc> integrals:      3.434 (MW) /     27.472 (MB)
	Total:                                     9.068 (MW) /     72.542 (MB)

	Size of irrep 0 of <Ia|Bc> integrals:      6.192 (MW) /     49.534 (MB)
	Size of irrep 1 of <Ia|Bc> integrals:      4.271 (MW) /     34.169 (MB)
	Total:                                    10.463 (MW) /     83.703 (MB)

	Size of irrep 0 of <iA|bC> integrals:      5.596 (MW) /     44.766 (MB)
	Size of irrep 1 of <iA|bC> integrals:      3.354 (MW) /     26.830 (MB)
	Total:                                     8.950 (MW) /     71.597 (MB)

	Size of irrep 0 of tIjAb amplitudes:       0.298 (MW) /      2.384 (MB)
	Size of irrep 1 of tIjAb amplitudes:       0.143 (MW) /      1.147 (MB)
	Total:                                     0.441 (MW) /      3.531 (MB)

	Nuclear Rep. energy          =    162.05365326917951
	SCF energy                   =  -1394.31349333955905
	One-electron energy          =    -55.87779839059671
	Two-electron (AA) energy     =      6.08232866835754
	Two-electron (BB) energy     =      4.34772346392176
	Two-electron (AB) energy     =     14.33044065256547
	Two-electron energy          =     24.76049278484478
	Reference energy             =  -1394.31349333957678

*** tstop() called on d3-18.compute.lan at Fri Mar  5 17:18:40 2021
Module time:
	user time   =     321.78 seconds =       5.36 minutes
	system time =      29.88 seconds =       0.50 minutes
	total time  =        114 seconds =       1.90 minutes
Total time:
	user time   =     713.02 seconds =      11.88 minutes
	system time =      34.76 seconds =       0.58 minutes
	total time  =        310 seconds =       5.17 minutes
            **************************
            *                        *
            *        CCENERGY        *
            *                        *
            **************************

    Nuclear Rep. energy (wfn)     =  162.053653269179506
    SCF energy          (wfn)     = -1394.313493339559045
    Reference energy    (file100) = -1394.313493339576780

    Input parameters:
    -----------------
    Wave function   =     CCSD_T
    Reference wfn   =     UHF
    Brueckner       =     No
    Memory (Mbytes) =     46000.0
    Maxiter         =     50
    R_Convergence   =     1.0e-10
    E_Convergence   =     1.0e-10
    Restart         =     Yes
    DIIS            =     Yes
    AO Basis        =     NONE
    ABCD            =     NEW
    Cache Level     =     2
    Cache Type      =     LRU
    Print Level     =     1
    Num. of threads =     12
    # Amps to Print =     10
    Print MP2 Amps? =     No
    Analyze T2 Amps =     No
    Print Pair Ener =     No
    Local CC        =     No
    SCS-MP2         =     False
    SCSN-MP2        =     False
    SCS-CCSD        =     False

MP2 correlation energy -0.3450280840058965
                Solving CC Amplitude Equations
                ------------------------------
  Iter             Energy              RMS        T1Diag      D1Diag    New D1Diag    D2Diag
  ----     ---------------------    ---------   ----------  ----------  ----------   --------
     0        -0.345028084005896    0.000e+00    0.000000    0.000000    0.000000    0.000000
     1        -0.358596945981088    8.242e-02    0.015911    0.000000    0.000000    0.000000
     2        -0.369253627537829    2.598e-02    0.018535    0.000000    0.000000    0.000000
     3        -0.371438815712436    1.234e-02    0.022069    0.000000    0.000000    0.000000
     4        -0.371323469805828    3.432e-03    0.023147    0.000000    0.000000    0.000000
     5        -0.371288612790473    1.413e-03    0.023428    0.000000    0.000000    0.000000
     6        -0.371282243051797    6.110e-04    0.023515    0.000000    0.000000    0.000000
     7        -0.371278987533004    3.085e-04    0.023543    0.000000    0.000000    0.000000
     8        -0.371280117111503    1.658e-04    0.023547    0.000000    0.000000    0.000000
     9        -0.371283766250123    9.453e-05    0.023548    0.000000    0.000000    0.000000
    10        -0.371282347096741    5.114e-05    0.023550    0.000000    0.000000    0.000000
    11        -0.371282170357956    2.250e-05    0.023550    0.000000    0.000000    0.000000
    12        -0.371281796734792    1.093e-05    0.023550    0.000000    0.000000    0.000000
    13        -0.371281615764880    5.444e-06    0.023550    0.000000    0.000000    0.000000
    14        -0.371281610993442    2.979e-06    0.023550    0.000000    0.000000    0.000000
    15        -0.371281615227505    1.863e-06    0.023550    0.000000    0.000000    0.000000
    16        -0.371281615216433    1.046e-06    0.023550    0.000000    0.000000    0.000000

      * MP2 total energy                      = -1394.658521423582670
      * CCSD total energy                     = -1394.684774959470360
      * CCSD(T) total energy                     = -1394.706862566874634
*** Psi4 exiting successfully. Buy a developer a beer!
