                               Psi4 1.4a2.dev191

  ==> Input File <==

--------------------------------------------------------------------------
memory 10 GB

molecule  {
-1 2
S
S 1 r1
S 1 r2 2 a1
r1 = 2.0
r2 = 2.1
a1 = 120.0
}

set {
reference uks
basis aug-cc-pvtz
g_convergence gau_verytight
dft_spherical_points 590
dft_radial_points 99
}

optimize('wb97x-d')
frequencies('wb97x-d')

--------------------------------------------------------------------------

    Molecular point group: cs
  Charge       = -1
  Multiplicity = 2
  Basis Set: AUG-CC-PVTZ
    Blend: AUG-CC-PVTZ
  Basis Set: (AUG-CC-PVTZ AUX)
    Blend: AUG-CC-PVTZ-JKFIT
  @DF-UKS Final Energy: -1194.68617269172682
    Total Energy =                      -1194.6861726917268243
    Molecular point group: cs
  Basis Set: AUG-CC-PVTZ
    Blend: AUG-CC-PVTZ
  Basis Set: (AUG-CC-PVTZ AUX)
    Blend: AUG-CC-PVTZ-JKFIT
  Basis Set: AUG-CC-PVTZ
    Blend: AUG-CC-PVTZ
  Basis Set: (AUG-CC-PVTZ AUX)
    Blend: AUG-CC-PVTZ-JKFIT
  @DF-UKS Final Energy: -1194.68993631079593
    Total Energy =                      -1194.6899363107959289
  Basis Set: AUG-CC-PVTZ
    Blend: AUG-CC-PVTZ
  Basis Set: (AUG-CC-PVTZ AUX)
    Blend: AUG-CC-PVTZ-JKFIT
  Basis Set: AUG-CC-PVTZ
    Blend: AUG-CC-PVTZ
  @DF-UKS Final Energy: -1194.69043864548098
    Total Energy =                      -1194.6904386454809810
  @DF-UKS Final Energy: -1194.69046981447900
    Total Energy =                      -1194.6904698144787744
  @DF-UKS Final Energy: -1194.69047293039739
    Total Energy =                      -1194.6904729303973909
  @DF-UKS Final Energy: -1194.69047314188811
    Total Energy =                      -1194.6904731418881056
  @DF-UKS Final Energy: -1194.69047315361786
    Total Energy =                      -1194.6904731536178588
  @DF-UKS Final Energy: -1194.69047315287389
    Total Energy =                      -1194.6904731528738921
  **** Optimization is complete! (in 8 steps) ****
    Final optimized geometry and variables:
  @DF-UKS Final Energy: -1194.69047315287298
    Total Energy =                      -1194.6904731528729826
  @DF-UKS Final Energy: -1194.69047315303919
    Total Energy =                      -1194.6904731530391928
  @DF-UKS Final Energy: -1194.69047302509534
    Total Energy =                      -1194.6904730250953435
  @DF-UKS Final Energy: -1194.69047304974538
    Total Energy =                      -1194.6904730497453784
  @DF-UKS Final Energy: -1194.69047299942395
    Total Energy =                      -1194.6904729994241734
  @DF-UKS Final Energy: -1194.69047301444994
    Total Energy =                      -1194.6904730144499354
  Basis Set: (AUG-CC-PVTZ AUX)
    Blend: AUG-CC-PVTZ-JKFIT
  Basis Set: AUG-CC-PVTZ
    Blend: AUG-CC-PVTZ
  Basis Set: (AUG-CC-PVTZ AUX)
    Blend: AUG-CC-PVTZ-JKFIT
  @DF-UKS Final Energy: -1194.69047309396569
    Total Energy =                      -1194.6904730939656929
  Basis Set: AUG-CC-PVTZ
    Blend: AUG-CC-PVTZ
  Basis Set: (AUG-CC-PVTZ AUX)
    Blend: AUG-CC-PVTZ-JKFIT
    Molecular point group: cs
  Charge       = -1
  Multiplicity = 2
  Basis Set: AUG-CC-PVTZ
    Blend: AUG-CC-PVTZ
  Basis Set: (AUG-CC-PVTZ AUX)
    Blend: AUG-CC-PVTZ-JKFIT

    Orbital Energies [Eh]
    ---------------------

    Alpha Occupied:

       1Ap   -88.945493     2Ap   -88.856866     3Ap   -88.856863
       4Ap    -7.947279     5Ap    -7.865533     6Ap    -7.865529
       7Ap    -5.895722     1App   -5.894416     8Ap    -5.891500
       9Ap    -5.815653    10Ap    -5.815652     2App   -5.811607
       3App   -5.811607    11Ap    -5.806941    12Ap    -5.806940
      13Ap    -0.744144    14Ap    -0.608914    15Ap    -0.482812
      16Ap    -0.293345     4App   -0.275247    17Ap    -0.273169
       5App   -0.164295    18Ap    -0.139975    19Ap    -0.134677
       6App   -0.095371

    Alpha Virtual:

      20Ap     0.172191    21Ap     0.172459    22Ap     0.206116
      23Ap     0.219377     7App    0.224643    24Ap     0.232577
       8App    0.239602     9App    0.244815    25Ap     0.249664
      26Ap     0.250234    27Ap     0.265043    28Ap     0.275484
      29Ap     0.337899    30Ap     0.352123    10App    0.368255
      11App    0.389345    31Ap     0.394345    32Ap     0.431758
      33Ap     0.445017    34Ap     0.445233    12App    0.457859
      35Ap     0.460163    13App    0.471781    14App    0.508495
      36Ap     0.521116    37Ap     0.524401    38Ap     0.550898
      15App    0.556272    39Ap     0.582356    16App    0.628535
      40Ap     0.663986    17App    0.706328    41Ap     0.714354
      42Ap     0.731439    43Ap     0.735527    18App    0.742013
      19App    0.744151    44Ap     0.746380    45Ap     0.747235
      20App    0.753093    46Ap     0.769713    47Ap     0.792590
      21App    0.817897    48Ap     0.827749    49Ap     0.829720
      22App    0.840635    50Ap     0.851010    51Ap     0.866477
      52Ap     0.883732    23App    0.892993    24App    0.933449
      53Ap     0.939478    25App    0.941628    54Ap     0.992211
      55Ap     0.994520    26App    0.997406    27App    0.999202
      56Ap     1.029436    57Ap     1.063250    58Ap     1.075086
      59Ap     1.158680    28App    1.176051    29App    1.186923
      60Ap     1.220790    30App    1.239914    61Ap     1.246394
      31App    1.322686    62Ap     1.341713    63Ap     1.343170
      64Ap     1.367359    32App    1.403813    65Ap     1.406585
      33App    1.412442    66Ap     1.509545    67Ap     1.526254
      68Ap     1.613293    69Ap     1.695282    70Ap     1.993163
      34App    2.006752    35App    2.031654    71Ap     2.044818
      72Ap     2.072417    36App    2.075123    37App    2.084121
      73Ap     2.084529    74Ap     2.097764    38App    2.145145
      75Ap     2.146753    76Ap     2.190486    77Ap     2.199011
      78Ap     2.202251    39App    2.208213    40App    2.210442
      41App    2.228873    79Ap     2.234618    42App    2.268392
      80Ap     2.268685    43App    2.280468    81Ap     2.334921
      82Ap     2.343882    44App    2.368653    45App    2.383557
      83Ap     2.391780    84Ap     2.398872    46App    2.456462
      85Ap     2.479370    47App    2.494016    48App    2.500037
      86Ap     2.513973    87Ap     2.522062    49App    2.558583
      88Ap     2.600003    89Ap     2.626627    90Ap     2.681563
      91Ap     2.695828    92Ap     2.781805    50App    2.806310
      51App    2.809262    93Ap     2.827212    94Ap     2.925180
      95Ap     3.865110    96Ap     3.926287    97Ap     4.979977
      98Ap     5.445729    99Ap     5.827061

    Beta Occupied:

       1Ap   -88.942738     2Ap   -88.855261     3Ap   -88.855258
       4Ap    -7.944459     5Ap    -7.863839     6Ap    -7.863829
       7Ap    -5.893854     8Ap    -5.889715     1App   -5.885015
       9Ap    -5.814716    10Ap    -5.814715     2App   -5.805837
       3App   -5.805836    11Ap    -5.805777    12Ap    -5.805777
      13Ap    -0.732018    14Ap    -0.598956    15Ap    -0.460175
      16Ap    -0.285256    17Ap    -0.266927     4App   -0.240359
      18Ap    -0.134266    19Ap    -0.130632     5App   -0.122761

    Beta Virtual:

       6App    0.116902    20Ap     0.173859    21Ap     0.174740
      22Ap     0.207006    23Ap     0.222677     7App    0.227356
      24Ap     0.233109     8App    0.241614     9App    0.249919
      25Ap     0.250883    26Ap     0.253895    27Ap     0.264997
      28Ap     0.279792    29Ap     0.338798    30Ap     0.352138
      10App    0.371956    31Ap     0.395436    11App    0.396520
      32Ap     0.432329    33Ap     0.447715    34Ap     0.447917
      35Ap     0.464506    12App    0.465312    13App    0.476389
      14App    0.513362    36Ap     0.521287    37Ap     0.526373
      38Ap     0.552193    15App    0.560139    39Ap     0.584410
      16App    0.634915    40Ap     0.665911    17App    0.709632
      41Ap     0.715018    42Ap     0.733603    43Ap     0.737084
      44Ap     0.748073    45Ap     0.750962    18App    0.751965
      19App    0.752035    20App    0.758180    46Ap     0.770707
      47Ap     0.795607    21App    0.826522    48Ap     0.834078
      49Ap     0.835378    22App    0.848355    50Ap     0.855496
      51Ap     0.875337    52Ap     0.888785    23App    0.903208
      24App    0.939546    53Ap     0.944302    25App    0.954180
      54Ap     0.995117    55Ap     0.996671    26App    0.999259
      27App    1.003017    56Ap     1.036495    57Ap     1.066550
      58Ap     1.077565    59Ap     1.159648    28App    1.178412
      29App    1.191938    60Ap     1.224631    30App    1.243927
      61Ap     1.248766    31App    1.326751    62Ap     1.343383
      63Ap     1.345079    64Ap     1.370961    65Ap     1.409002
      32App    1.409846    33App    1.420051    66Ap     1.510988
      67Ap     1.532744    68Ap     1.619489    69Ap     1.704855
      70Ap     2.002720    34App    2.017753    35App    2.040113
      71Ap     2.053080    72Ap     2.081911    36App    2.083451
      73Ap     2.087316    37App    2.092843    74Ap     2.100590
      75Ap     2.147704    38App    2.159686    76Ap     2.193762
      77Ap     2.206726    78Ap     2.208239    39App    2.222720
      40App    2.223942    41App    2.238396    79Ap     2.238528
      80Ap     2.276360    42App    2.282592    43App    2.297266
      81Ap     2.339836    82Ap     2.350500    44App    2.379868
      45App    2.394209    83Ap     2.399719    84Ap     2.406853
      46App    2.463692    85Ap     2.487297    47App    2.506515
      48App    2.513437    86Ap     2.519900    87Ap     2.527048
      49App    2.571220    88Ap     2.610708    89Ap     2.630269
      90Ap     2.685985    91Ap     2.700510    92Ap     2.786916
      50App    2.817653    51App    2.823660    93Ap     2.829800
      94Ap     2.927465    95Ap     3.868390    96Ap     3.929783
      97Ap     4.986238    98Ap     5.450150    99Ap     5.832716

    Final Occupation by Irrep:
             Ap   App
    DOCC [    19,    5 ]
    SOCC [     0,    1 ]

  @DF-UKS Final Energy: -1194.69047307677124

   => Energetics <=

    Nuclear Repulsion Energy =            175.9074768457227833
    One-Electron Energy =               -2010.5001998012953663
    Two-Electron Energy =                 696.2677786218662277
    DFT Exchange-Correlation Energy =     -56.3652994923264643
    Empirical Dispersion Energy =          -0.0002292507385334
    VV10 Nonlocal Energy =                  0.0000000000000000
    Total Energy =                      -1194.6904730767712408

  UHF NO Occupations:
  HONO-2 :    4App 1.9991702
  HONO-1 :    5App 1.9984952
  HONO-0 :    6App 1.0000000
  LUNO+0 :    7App 0.0015048
  LUNO+1 :    8App 0.0008298
  LUNO+2 :   20 Ap 0.0004093
  LUNO+3 :   21 Ap 0.0001557

Computation Completed

Properties will be evaluated at   0.000000,   0.000000,   0.000000 [a0]

Properties computed using the SCF density matrix

  Nuclear Dipole Moment: [e a0]
     X:     0.0000      Y:     0.0000      Z:     0.0000

  Electronic Dipole Moment: [e a0]
     X:     0.3809      Y:     0.2438      Z:     0.0000

  Dipole Moment: [e a0]
     X:     0.3809      Y:     0.2438      Z:     0.0000     Total:     0.4523

  Dipole Moment: [D]
     X:     0.9681      Y:     0.6198      Z:     0.0000     Total:     1.1495

*** tstop() called on c2-18.compute.lan at Tue Feb  2 15:16:36 2021
Module time:
	user time   =      86.15 seconds =       1.44 minutes
	system time =       0.41 seconds =       0.01 minutes
	total time  =        103 seconds =       1.72 minutes
Total time:
	user time   =    1532.47 seconds =      25.54 minutes
	system time =      66.05 seconds =       1.10 minutes
	total time  =       2210 seconds =      36.83 minutes

*** tstart() called on c2-18.compute.lan
*** at Tue Feb  2 15:16:36 2021

         ------------------------------------------------------------
                                   SCF GRAD
                          Rob Parrish, Justin Turney,
                       Andy Simmonett, and Alex Sokolov
         ------------------------------------------------------------

  ==> Geometry <==

    Molecular point group: cs
    Full point group: Cs

    Geometry (in Angstrom), charge = -1, multiplicity = 2:

       Center              X                  Y                   Z               Mass
    ------------   -----------------  -----------------  -----------------  -----------------
         S            0.604568872253     0.387023097767     0.000000000000    31.972071174400
         S            0.604747266820    -1.610385924873     0.000000000000    31.972071174400
         S           -1.209316139073     1.223362827106     0.000000000000    31.972071174400

  Nuclear repulsion =  175.907476845722783

  ==> Basis Set <==

  Basis Set: AUG-CC-PVTZ
    Blend: AUG-CC-PVTZ
    Number of shells: 48
    Number of basis function: 150
    Number of Cartesian functions: 177
    Spherical Harmonics?: true
    Max angular momentum: 3

  ==> DFJKGrad: Density-Fitted SCF Gradients <==

    Gradient:                    1
    J tasked:                  Yes
    K tasked:                  Yes
    wK tasked:                 Yes
    Omega:               2.000E-01
    OpenMP threads:              1
    Integrals threads:           1
    Memory [MiB]:             7152
    Schwarz Cutoff:          0E+00
    Fitting Condition:       1E-10

   => Auxiliary Basis Set <=

  Basis Set: (AUG-CC-PVTZ AUX)
    Blend: AUG-CC-PVTZ-JKFIT
    Number of shells: 126
    Number of basis function: 438
    Number of Cartesian functions: 540
    Spherical Harmonics?: true
    Max angular momentum: 4

  ==> DFT Potential <==

   => Composite Functional: WB97X-D <=

    wB97X-D Hyb-GGA Exchange-Correlation Functional

    J.-D. Chai and M. Head-Gordon, Phys. Chem. Chem. Phys. 10, 6615 (2008)

    Deriv               =              1
    GGA                 =           TRUE
    Meta                =          FALSE

    Exchange Hybrid     =           TRUE
    MP2 Hybrid          =          FALSE

   => Exchange-Correlation Functionals <=

    1.0000   wB97D range-separated functional

   => Exact (HF) Exchange <=

    0.7780            HF,LR [omega = 0.2000]
    0.2220               HF

   => Molecular Quadrature <=

    Radial Scheme          =       TREUTLER
    Pruning Scheme         =           NONE
    Nuclear Scheme         =       TREUTLER

    BS radius alpha        =              1
    Pruning alpha          =              1
    Radial Points          =             99
    Spherical Points       =            590
    Total Points           =         169929
    Total Blocks           =           1386
    Max Points             =            256
    Max Functions          =            150
    Weights Tolerance      =       1.00E-15

  -Total Gradient:
     Atom            X                  Y                   Z
    ------   -----------------  -----------------  -----------------
       1        0.000094953833     0.000060770993     0.000000000000
       2        0.000023656631    -0.000113801579     0.000000000000
       3       -0.000093459502     0.000069131419     0.000000000000

*** tstop() called on c2-18.compute.lan at Tue Feb  2 15:16:56 2021
Module time:
	user time   =      19.53 seconds =       0.33 minutes
	system time =       0.10 seconds =       0.00 minutes
	total time  =         20 seconds =       0.33 minutes
Total time:
	user time   =    1552.01 seconds =      25.87 minutes
	system time =      66.15 seconds =       1.10 minutes
	total time  =       2230 seconds =      37.17 minutes

         ----------------------------------------------------------
                                   FINDIF
                     R. A. King and Jonathon Misiewicz
         ---------------------------------------------------------

  Computing second-derivative from gradients using projected,
  symmetry-adapted, cartesian coordinates.

  7 gradients passed in, including the reference geometry.
  Generating complete list of displacements from unique ones.

-------------------------------------------------------------

  ==> Harmonic Vibrational Analysis <==

  non-mass-weighted Hessian:       Symmetric? True   Hermitian? True   Lin Dep Dim?  6 (0)
  projection of translations (True) and rotations (True) removed 6 degrees of freedom (6)
  total projector:                 Symmetric? True   Hermitian? True   Lin Dep Dim?  6 (6)
  mass-weighted Hessian:           Symmetric? True   Hermitian? True   Lin Dep Dim?  6 (0)
  pre-proj  low-frequency mode:    0.0000i [cm^-1]
  pre-proj  low-frequency mode:    0.0000i [cm^-1]
  pre-proj  low-frequency mode:    0.0000i [cm^-1]
  pre-proj  low-frequency mode:    0.0000  [cm^-1]
  pre-proj  low-frequency mode:    0.0000  [cm^-1]
  pre-proj  low-frequency mode:    0.0000  [cm^-1]
  pre-proj  all modes:['0.0000i' '0.0000i' '0.0000i' '0.0000' '0.0000' '0.0000' '233.0285'
 '547.1608' '584.4848']
  projected mass-weighted Hessian: Symmetric? True   Hermitian? True   Lin Dep Dim?  6 (6)
  post-proj low-frequency mode:    0.0000i [cm^-1] (TR)
  post-proj low-frequency mode:    0.0000i [cm^-1] (TR)
  post-proj low-frequency mode:    0.0000i [cm^-1] (TR)
  post-proj low-frequency mode:    0.0000  [cm^-1] (TR)
  post-proj low-frequency mode:    0.0000  [cm^-1] (TR)
  post-proj low-frequency mode:    0.0000  [cm^-1] (TR)
  post-proj  all modes:['0.0000i' '0.0000i' '0.0000i' '0.0000' '0.0000' '0.0000' '233.0285'
 '547.1608' '584.4848']

  Vibration                       7                   8                   9
  Freq [cm^-1]                 233.0285            547.1608            584.4848
  Irrep                           Ap                  Ap                  Ap
  Reduced mass [u]             31.9721             31.9721             31.9721
  Force const [mDyne/A]         1.0229              5.6396              6.4353
  Turning point v=0 [a0]        0.1271              0.0830              0.0803
  RMS dev v=0 [a0 u^1/2]        0.5083              0.3317              0.3209
  Char temp [K]                335.2761            787.2425            840.9435
  ----------------------------------------------------------------------------------
      1   S               -0.42 -0.27  0.00    0.55  0.35 -0.00   -0.41  0.65 -0.00
      2   S                0.51 -0.34 -0.00   -0.04 -0.53  0.00   -0.00 -0.45 -0.00
      3   S               -0.10  0.61 -0.00   -0.50  0.18  0.00    0.41 -0.19 -0.00

  ==> Thermochemistry Components <==

  Entropy, S
    Electronic S            1.377 [cal/(mol K)]        5.763 [J/(mol K)]       0.00219507 [mEh/K] (multiplicity = 2)
    Translational S        39.594 [cal/(mol K)]      165.660 [J/(mol K)]       0.06309659 [mEh/K] (mol. weight = 95.9162 [u], P = 101325.00 [Pa])
    Rotational S           25.240 [cal/(mol K)]      105.606 [J/(mol K)]       0.04022329 [mEh/K] (symmetry no. = 1)
    Vibrational S           2.883 [cal/(mol K)]       12.061 [J/(mol K)]       0.00459387 [mEh/K]
  Total S                  69.094 [cal/(mol K)]      289.091 [J/(mol K)]       0.11010882 [mEh/K]
  Correction S              0.000 [cal/(mol K)]        0.000 [J/(mol K)]       0.00000000 [mEh/K]

  Constant volume heat capacity, Cv
    Electronic Cv           0.000 [cal/(mol K)]        0.000 [J/(mol K)]       0.00000000 [mEh/K]
    Translational Cv        2.981 [cal/(mol K)]       12.472 [J/(mol K)]       0.00475022 [mEh/K]
    Rotational Cv           2.981 [cal/(mol K)]       12.472 [J/(mol K)]       0.00475022 [mEh/K]
    Vibrational Cv          4.001 [cal/(mol K)]       16.741 [J/(mol K)]       0.00637633 [mEh/K]
  Total Cv                  9.963 [cal/(mol K)]       41.684 [J/(mol K)]       0.01587676 [mEh/K]
  Correction Cv             0.000 [cal/(mol K)]        0.000 [J/(mol K)]       0.00000000 [mEh/K]

  Constant pressure heat capacity, Cp
    Electronic Cp           0.000 [cal/(mol K)]        0.000 [J/(mol K)]       0.00000000 [mEh/K]
    Translational Cp        4.968 [cal/(mol K)]       20.786 [J/(mol K)]       0.00791703 [mEh/K]
    Rotational Cp           2.981 [cal/(mol K)]       12.472 [J/(mol K)]       0.00475022 [mEh/K]
    Vibrational Cp          4.001 [cal/(mol K)]       16.741 [J/(mol K)]       0.00637633 [mEh/K]
  Total Cp                 11.950 [cal/(mol K)]       49.999 [J/(mol K)]       0.01904357 [mEh/K]
  Correction Cp             0.000 [cal/(mol K)]        0.000 [J/(mol K)]       0.00000000 [mEh/K]

  ==> Thermochemistry Energy Analysis <==

  Raw electronic energy, E0
  Total E0, Electronic energy at well bottom at 0 [K]                -1194.69047315 [Eh]

  Zero-point energy, ZPE_vib = Sum_i nu_i / 2
    Electronic ZPE          0.000 [kcal/mol]        0.000 [kJ/mol]       0.00000000 [Eh]
    Translational ZPE       0.000 [kcal/mol]        0.000 [kJ/mol]       0.00000000 [Eh]
    Rotational ZPE          0.000 [kcal/mol]        0.000 [kJ/mol]       0.00000000 [Eh]
    Vibrational ZPE         1.951 [kcal/mol]        8.163 [kJ/mol]       0.00310896 [Eh]         682.337 [cm^-1]
  Correction ZPE            1.951 [kcal/mol]        8.163 [kJ/mol]       0.00310896 [Eh]         682.337 [cm^-1]
  Total ZPE, Electronic energy at 0 [K]                              -1194.68736420 [Eh]

  Thermal Energy, E (includes ZPE)
    Electronic E            0.000 [kcal/mol]        0.000 [kJ/mol]       0.00000000 [Eh]
    Translational E         0.889 [kcal/mol]        3.718 [kJ/mol]       0.00141628 [Eh]
    Rotational E            0.889 [kcal/mol]        3.718 [kJ/mol]       0.00141628 [Eh]
    Vibrational E           2.497 [kcal/mol]       10.449 [kJ/mol]       0.00397992 [Eh]
  Correction E              4.275 [kcal/mol]       17.886 [kJ/mol]       0.00681247 [Eh]
  Total E, Electronic energy at  298.15 [K]                          -1194.68366068 [Eh]

  Enthalpy, H_trans = E_trans + k_B * T
    Electronic H            0.000 [kcal/mol]        0.000 [kJ/mol]       0.00000000 [Eh]
    Translational H         1.481 [kcal/mol]        6.197 [kJ/mol]       0.00236046 [Eh]
    Rotational H            0.889 [kcal/mol]        3.718 [kJ/mol]       0.00141628 [Eh]
    Vibrational H           2.497 [kcal/mol]       10.449 [kJ/mol]       0.00397992 [Eh]
  Correction H              4.867 [kcal/mol]       20.365 [kJ/mol]       0.00775666 [Eh]
  Total H, Enthalpy at  298.15 [K]                                   -1194.68271650 [Eh]

  Gibbs free energy, G = H - T * S
    Electronic G           -0.411 [kcal/mol]       -1.718 [kJ/mol]      -0.00065446 [Eh]
    Translational G       -10.324 [kcal/mol]      -43.194 [kJ/mol]      -0.01645179 [Eh]
    Rotational G           -6.637 [kcal/mol]      -27.768 [kJ/mol]      -0.01057630 [Eh]
    Vibrational G           1.638 [kcal/mol]        6.853 [kJ/mol]       0.00261025 [Eh]
  Correction G            -15.733 [kcal/mol]      -65.827 [kJ/mol]      -0.02507229 [Eh]
  Total G, Free enthalpy at  298.15 [K]                              -1194.71554544 [Eh]

*** Psi4 exiting successfully. Buy a developer a beer!
