                               Psi4 1.3.2 release

  ==> Input File <==

--------------------------------------------------------------------------
memory 46 GB

basis jerome {
assign pot
assign S aug-cc-pV(T+d)Z

[pot]
spherical
****
 K  0
 S 23 1.00
    2.709796E+07     4.136110E-07
    3.592856E+06     3.860330E-06
    7.222638E+05     2.394640E-05
    1.833976E+05     1.157540E-04
    5.464812E+04     4.697010E-04
    1.830913E+04     1.673720E-03
    6.712501E+03     5.370450E-03
    2.643719E+03     1.572510E-02
    1.103835E+03     4.193360E-02
    4.836777E+02     9.987620E-02
    2.206245E+02     2.019680E-01
    1.041117E+02     3.146270E-01
    5.052749E+01     3.107540E-01
    2.485247E+01     1.421920E-01
    1.128102E+01     1.658490E-02
    5.510166E+00    -2.759760E-04
    2.706914E+00     5.158310E-04
    1.122807E+00    -2.268950E-04
    5.236385E-01     6.652980E-05
    2.355180E-01    -3.685150E-05
    4.157977E-02     1.925250E-05
    2.555456E-02    -2.108420E-05
    1.471495E-02     7.044600E-06
 S 23 1.00
    2.709796E+07    -1.188290E-07
    3.592856E+06    -1.108550E-06
    7.222638E+05    -6.881230E-06
    1.833976E+05    -3.324150E-05
    5.464812E+04    -1.350850E-04
    1.830913E+04    -4.814570E-04
    6.712501E+03    -1.552620E-03
    2.643719E+03    -4.578330E-03
    1.103835E+03    -1.247930E-02
    4.836777E+02    -3.094650E-02
    2.206245E+02    -6.855530E-02
    1.041117E+02    -1.268300E-01
    5.052749E+01    -1.745020E-01
    2.485247E+01    -9.089560E-02
    1.128102E+01     2.506960E-01
    5.510166E+00     5.589630E-01
    2.706914E+00     3.284370E-01
    1.122807E+00     3.392170E-02
    5.236385E-01    -2.100280E-03
    2.355180E-01     1.383960E-03
    4.157977E-02    -5.315630E-04
    2.555456E-02     5.770310E-04
    1.471495E-02    -1.931440E-04
 S 23 1.00
    2.709796E+07     3.917470E-08
    3.592856E+06     3.650640E-07
    7.222638E+05     2.269460E-06
    1.833976E+05     1.094290E-05
    5.464812E+04     4.457360E-05
    1.830913E+04     1.584480E-04
    6.712501E+03     5.128440E-04
    2.643719E+03     1.507690E-03
    1.103835E+03     4.136940E-03
    4.836777E+02     1.024690E-02
    2.206245E+02     2.306520E-02
    1.041117E+02     4.308900E-02
    5.052749E+01     6.238120E-02
    2.485247E+01     3.270420E-02
    1.128102E+01    -1.021980E-01
    5.510166E+00    -3.317970E-01
    2.706914E+00    -3.030100E-01
    1.122807E+00     3.098410E-01
    5.236385E-01     6.732700E-01
    2.355180E-01     2.812200E-01
    4.157977E-02     9.376240E-03
    2.555456E-02    -6.955720E-03
    1.471495E-02     2.069460E-03
 S 23 1.00
    2.709796E+07    -7.564440E-09
    3.592856E+06    -7.055390E-08
    7.222638E+05    -4.380820E-07
    1.833976E+05    -2.115540E-06
    5.464812E+04    -8.601300E-06
    1.830913E+04    -3.064440E-05
    6.712501E+03    -9.892550E-05
    2.643719E+03    -2.917760E-04
    1.103835E+03    -7.977860E-04
    4.836777E+02    -1.985820E-03
    2.206245E+02    -4.449740E-03
    1.041117E+02    -8.390260E-03
    5.052749E+01    -1.206000E-02
    2.485247E+01    -6.568410E-03
    1.128102E+01     2.061430E-02
    5.510166E+00     6.770060E-02
    2.706914E+00     6.639570E-02
    1.122807E+00    -8.237770E-02
    5.236385E-01    -1.727150E-01
    2.355180E-01    -2.310290E-01
    4.157977E-02     5.090040E-01
    2.555456E-02     3.472180E-01
    1.471495E-02     2.809620E-01
 S 1 1.00
    2.555456E-02     1.000000E+00
 S 1 1.00
    1.471495E-02     1.000000E+00
 S 1 1.00
    8.470000E-03     1.000000E+00
 P 16 1.00
    9.533309E+03     4.212010E-05
    1.852081E+03     5.068300E-04
    5.464251E+02     3.311700E-03
    1.966947E+02     1.536840E-02
    7.964112E+01     5.457060E-02
    3.488324E+01     1.473880E-01
    1.604479E+01     2.879240E-01
    7.575632E+00     3.750810E-01
    3.672548E+00     2.545160E-01
    1.771130E+00     6.059280E-02
    8.515199E-01     2.508370E-03
    4.016017E-01     6.688870E-04
    1.851933E-01    -1.486150E-04
    5.523390E-02     4.936010E-05
    2.431085E-02    -3.513850E-05
    1.080339E-02     1.171450E-05
 P 16 1.00
    9.533309E+03    -1.280760E-05
    1.852081E+03    -1.547870E-04
    5.464251E+02    -1.010940E-03
    1.966947E+02    -4.738330E-03
    7.964112E+01    -1.703260E-02
    3.488324E+01    -4.754130E-02
    1.604479E+01    -9.560810E-02
    7.575632E+00    -1.337000E-01
    3.672548E+00    -7.425060E-02
    1.771130E+00     1.646810E-01
    8.515199E-01     4.057630E-01
    4.016017E-01     4.113600E-01
    1.851933E-01     1.734240E-01
    5.523390E-02     1.253640E-02
    2.431085E-02    -3.267140E-03
    1.080339E-02     1.039680E-03
 P 16 1.00
    9.533309E+03     1.764010E-06
    1.852081E+03     2.124880E-05
    5.464251E+02     1.392500E-04
    1.966947E+02     6.509140E-04
    7.964112E+01     2.349940E-03
    3.488324E+01     6.547470E-03
    1.604479E+01     1.326270E-02
    7.575632E+00     1.848520E-02
    3.672548E+00     1.025530E-02
    1.771130E+00    -2.652150E-02
    8.515199E-01    -6.086460E-02
    4.016017E-01    -7.474220E-02
    1.851933E-01    -4.870880E-02
    5.523390E-02     2.245720E-01
    2.431085E-02     5.839280E-01
    1.080339E-02     2.980960E-01
 P 1 1.00
    5.523390E-02     1.000000E+00
 P 1 1.00
    1.080339E-02     1.000000E+00
 P 1 1.00
    4.800000E-03     1.000000E+00
 D 6 1.00
    5.670903E+00     8.285900E-03
    1.459042E+00     2.332530E-02
    5.431827E-01     4.878080E-02
    1.346875E-01     7.349020E-02
    5.516013E-02     2.387630E-01
    1.501876E-02     8.253200E-01
 D 1 1.00
    5.516013E-02     1.000000E+00
 D 1 1.00
    1.501876E-02     1.000000E+00
 D 1 1.00
    6.010000E-03     1.000000E+00
 F 1 1.00
    8.493750E-02     1.000000E+00
 F 1 1.00
    3.398000E-02     1.000000E+00
 ****
}

molecule  {
0 2
S   -1.195429620892    1.038878942022    0.000000000000
S   -1.195232412786   -1.038753536240    0.000000000000
K    1.961682385667   -0.000102903007    0.000000000000
}
set {
basis jerome
reference uhf
g_convergence gau_verytight
e_convergence 10
scf_type pk
freeze_core true
geom_maxiter 100
}

set ccenergy {
e_convergence 10
r_convergence 10
}

e = energy('ccsd(t)')

print_out('Stephenergy {}'.format(e))

--------------------------------------------------------------------------

    Molecular point group: cs

    Geometry (in Angstrom), charge = 0, multiplicity = 2:

       Center              X                  Y                   Z               Mass
    ------------   -----------------  -----------------  -----------------  -----------------
         S           -1.195429620892     1.038878942022     0.000000000000    31.972071174400
         S           -1.195232412786    -1.038753536240     0.000000000000    31.972071174400
         K            1.961682385667    -0.000102903007     0.000000000000    38.963706486400

  Charge       = 0
  Multiplicity = 2
  Basis Set: JEROME
    Blend: AUG-CC-PV(T+D)Z + POT

    Orbital Energies [Eh]
    ---------------------

    Alpha Occupied:

       1Ap  -133.559634     2Ap   -91.906705     3Ap   -91.906691
       4Ap   -14.515891     1App  -11.545908     5Ap   -11.545825
       6Ap   -11.545751     7Ap    -8.904208     8Ap    -8.904038
       2App   -6.593194     3App   -6.593172     9Ap    -6.583085
      10Ap    -6.582719    11Ap    -6.581530    12Ap    -6.581506
      13Ap    -1.773857     4App   -0.982952    14Ap    -0.981736
      15Ap    -0.981377    16Ap    -0.944441    17Ap    -0.757661
       5App   -0.413967    18Ap    -0.402743    19Ap    -0.386107
       6App   -0.296130    20Ap    -0.260710

    Alpha Virtual:

      21Ap    -0.019896     7App    0.002173    22Ap     0.002631
      23Ap     0.005694    24Ap     0.016457     8App    0.017141
      25Ap     0.017264     9App    0.019895    26Ap     0.020823
      27Ap     0.022362    10App    0.022865    28Ap     0.028726
      29Ap     0.032856    30Ap     0.051012    11App    0.051140
      31Ap     0.055474    12App    0.058850    32Ap     0.061864
      13App    0.073587    33Ap     0.074484    34Ap     0.088214
      35Ap     0.104502    36Ap     0.108382    37Ap     0.125501
      14App    0.125673    38Ap     0.128647    39Ap     0.128774
      15App    0.129774    16App    0.133150    40Ap     0.133836
      41Ap     0.150445    17App    0.152720    42Ap     0.153540
      18App    0.167041    43Ap     0.170516    44Ap     0.174853
      19App    0.178459    20App    0.186402    45Ap     0.206672
      46Ap     0.207624    47Ap     0.221439    21App    0.233527
      48Ap     0.244619    49Ap     0.267896    50Ap     0.310657
      51Ap     0.310909    22App    0.337510    52Ap     0.350657
      53Ap     0.362725    23App    0.375766    24App    0.381777
      54Ap     0.383542    25App    0.386400    55Ap     0.391627
      56Ap     0.391647    26App    0.394180    57Ap     0.406270
      27App    0.407376    58Ap     0.428268    59Ap     0.431050
      60Ap     0.439843    28App    0.452899    29App    0.456761
      61Ap     0.462993    30App    0.466719    62Ap     0.488114
      63Ap     0.514819    64Ap     0.537754    31App    0.666908
      32App    0.703430    65Ap     0.709221    33App    0.711235
      66Ap     0.730776    67Ap     0.747029    68Ap     0.785638
      34App    0.801272    69Ap     0.814041    70Ap     0.815380
      35App    0.850826    71Ap     0.856528    72Ap     0.870908
      36App    0.892091    73Ap     0.909484    37App    0.914738
      74Ap     0.947691    75Ap     0.948317    76Ap     0.962190
      38App    1.012346    77Ap     1.018869    39App    1.048238
      78Ap     1.052852    79Ap     1.078801    40App    1.161650
      80Ap     1.196947    81Ap     1.197481    41App    1.202420
      82Ap     1.218469    42App    1.363415    83Ap     1.395052
      84Ap     1.461778    85Ap     1.677139    43App    2.031353
      86Ap     2.036033    44App    2.064558    87Ap     2.067245
      45App    2.078955    88Ap     2.096663    89Ap     2.132457
      46App    2.214710    90Ap     2.284328    47App    2.287250
      91Ap     2.291747    92Ap     2.312147    93Ap     2.372340
      48App    2.379090    94Ap     2.413136    49App    2.421743
      95Ap     2.450586    96Ap     2.473402    50App    2.485648
      51App    2.504873    52App    2.560974    97Ap     2.581279
      53App    2.584692    98Ap     2.668577    99Ap     2.685449
     100Ap     2.707275   101Ap     2.725554    54App    2.867146
     102Ap     2.898362   103Ap     3.988869   104Ap     4.954688
     105Ap     5.749993    55App    7.416934   106Ap     7.419717
     107Ap     7.436001    56App    7.436282    57App    7.438674
     108Ap     7.461682    58App    7.509491   109Ap     7.532166
     110Ap     7.596806   111Ap     7.607973

    Beta Occupied:

       1Ap  -133.559657     2Ap   -91.901115     3Ap   -91.901103
       4Ap   -14.515921     1App  -11.545942     5Ap   -11.545859
       6Ap   -11.545782     7Ap    -8.898132     8Ap    -8.897924
       9Ap    -6.580384    10Ap    -6.580004    11Ap    -6.577987
      12Ap    -6.577965     2App   -6.568721     3App   -6.568685
      13Ap    -1.774019     4App   -0.983112    14Ap    -0.981883
      15Ap    -0.980407    16Ap    -0.906127    17Ap    -0.687047
      18Ap    -0.386840    19Ap    -0.377574     5App   -0.289180
      20Ap    -0.247711

    Beta Virtual:

      21Ap    -0.019907     6App    0.002203    22Ap     0.002644
      23Ap     0.005683    24Ap     0.016452     7App    0.016970
      25Ap     0.017265     8App    0.019937    26Ap     0.020848
      27Ap     0.022412     9App    0.022958    28Ap     0.028728
      29Ap     0.032765    10App    0.046972    30Ap     0.050979
      31Ap     0.055744    11App    0.059305    32Ap     0.061831
      12App    0.064989    13App    0.073771    33Ap     0.074678
      34Ap     0.087875    35Ap     0.104285    36Ap     0.110094
      37Ap     0.125702    14App    0.125788    38Ap     0.128608
      39Ap     0.129626    15App    0.129696    40Ap     0.133881
      16App    0.134980    41Ap     0.150304    42Ap     0.153791
      17App    0.164156    18App    0.171857    43Ap     0.172082
      44Ap     0.174532    19App    0.183756    20App    0.187117
      45Ap     0.207579    46Ap     0.212175    47Ap     0.224214
      21App    0.233745    48Ap     0.245234    49Ap     0.267065
      50Ap     0.313729    51Ap     0.317270    52Ap     0.351906
      22App    0.356501    53Ap     0.366892    54Ap     0.383854
      23App    0.384536    24App    0.388634    25App    0.389653
      55Ap     0.391531    56Ap     0.395652    26App    0.396029
      27App    0.407417    57Ap     0.408626    58Ap     0.430928
      59Ap     0.433702    60Ap     0.442862    28App    0.462611
      61Ap     0.468767    29App    0.470013    30App    0.475446
      62Ap     0.488997    63Ap     0.518427    64Ap     0.538474
      31App    0.686441    65Ap     0.716972    66Ap     0.736554
      32App    0.739652    33App    0.741845    67Ap     0.749475
      68Ap     0.798424    69Ap     0.814302    34App    0.818320
      70Ap     0.831403    71Ap     0.868847    35App    0.885441
      72Ap     0.895438    73Ap     0.915088    36App    0.921818
      37App    0.925167    74Ap     0.951404    75Ap     0.960438
      76Ap     0.966014    38App    1.024766    77Ap     1.029908
      78Ap     1.054777    39App    1.058812    79Ap     1.085142
      40App    1.173827    80Ap     1.196651    81Ap     1.206931
      41App    1.208985    82Ap     1.220574    42App    1.379577
      83Ap     1.397083    84Ap     1.474666    85Ap     1.692572
      43App    2.046580    86Ap     2.050754    44App    2.079610
      87Ap     2.082271    45App    2.094884    88Ap     2.098835
      89Ap     2.134652    46App    2.236753    90Ap     2.289172
      91Ap     2.293896    47App    2.304024    92Ap     2.314936
      93Ap     2.385382    48App    2.391812    94Ap     2.425208
      49App    2.454122    95Ap     2.461915    96Ap     2.495760
      50App    2.508660    51App    2.531923    52App    2.585537
      97Ap     2.597475    53App    2.600965    98Ap     2.674109
      99Ap     2.689959   100Ap     2.711749   101Ap     2.731358
      54App    2.888249   102Ap     2.901074   103Ap     3.992375
     104Ap     4.965857   105Ap     5.760333    55App    7.423132
     106Ap     7.426041   107Ap     7.442534    56App    7.442803
      57App    7.444733   108Ap     7.462760    58App    7.515451
     109Ap     7.533046   110Ap     7.598743   111Ap     7.609858

    Final Occupation by Irrep:
             Ap   App
    DOCC [    20,    5 ]
    SOCC [     0,    1 ]

  @UHF Final Energy: -1394.31340636488653

   => Energetics <=

    Nuclear Repulsion Energy =            162.0102584951766289
    One-Electron Energy =               -2249.2367117085868813
    Two-Electron Energy =                 692.9130468485238907
    Total Energy =                      -1394.3134063648865322

  UHF NO Occupations:
  HONO-2 :   20 Ap 1.9974863
  HONO-1 :    5App 1.9868947
  HONO-0 :    6App 1.0000000
  LUNO+0 :    7App 0.0131053
  LUNO+1 :   21 Ap 0.0025137
  LUNO+2 :   22 Ap 0.0022666
  LUNO+3 :   23 Ap 0.0003116

Computation Completed

Properties will be evaluated at   0.000000,   0.000000,   0.000000 [a0]

Properties computed using the SCF density matrix

  Nuclear Dipole Moment: [e a0]
     X:    -1.8493      Y:     0.0001      Z:     0.0000

  Electronic Dipole Moment: [e a0]
     X:     6.6347      Y:    -0.0002      Z:     0.0000

  Dipole Moment: [e a0]
     X:     4.7854      Y:    -0.0001      Z:     0.0000     Total:     4.7854

  Dipole Moment: [D]
     X:    12.1632      Y:    -0.0002      Z:     0.0000     Total:    12.1632

*** tstop() called on d3-3.compute.lan at Sat Mar  6 02:12:15 2021
Module time:
	user time   =     261.39 seconds =       4.36 minutes
	system time =       3.95 seconds =       0.07 minutes
	total time  =         69 seconds =       1.15 minutes
Total time:
	user time   =     261.39 seconds =       4.36 minutes
	system time =       3.95 seconds =       0.07 minutes
	total time  =         69 seconds =       1.15 minutes
 MINTS: Wrapper to libmints.
   by Justin Turney

   Calculation information:
      Number of threads:                12
      Number of atoms:                   3
      Number of AO shells:              53
      Number of SO shells:              53
      Number of primitives:            287
      Number of atomic orbitals:       199
      Number of basis functions:       169

      Number of irreps:                  2
      Integral cutoff                 0.00e+00
      Number of functions per irrep: [ 111   58 ]

 OEINTS: Overlap, kinetic, potential, dipole, and quadrupole integrals
         stored in file 35.

      Computing two-electron integrals...done
      Computed 50996260 non-zero two-electron integrals.
        Stored in file 33.

*** tstart() called on d3-3.compute.lan
*** at Sat Mar  6 02:14:21 2021

	Wfn Parameters:
	--------------------
	Wavefunction         = CCSD_T
	Number of irreps     = 2
	Number of MOs        = 169
	Number of active MOs = 150
	AO-Basis             = NONE
	Semicanonical        = false
	Reference            = UHF
	Print Level          = 1

	IRREP	# MOs	# FZDC	# DOCC	# SOCC	# VIRT	# FZVR
	-----	-----	------	------	------	------	------
	 Ap	   111	    15	    5	    0	    91	    0
	 App	   58	    4	    1	    1	    52	    0
	Transforming integrals...
	IWL integrals will be deleted.
	(OO|OO)...
	Presorting SO-basis two-electron integrals.
	Sorting File: SO Ints (nn|nn) nbuckets = 1
	Transforming the one-electron integrals and constructing Fock matrices
	Starting AA/AB first half-transformation.
	Sorting AA/AB half-transformed integrals.
	Starting BB first half-transformation.
	Sorting BB half-transformed integrals.
	First half integral transformation complete.
	Starting AA second half-transformation.
	Starting AB second half-transformation.
	Starting BB second half-transformation.
	Two-electron integral transformation complete.
	(OO|OV)...
	Starting AA second half-transformation.
	Starting AB second half-transformation.
	Starting BB second half-transformation.
	Two-electron integral transformation complete.
	(OO|VV)...
	Starting AA second half-transformation.
	Starting AB second half-transformation.
	Starting BB second half-transformation.
	Two-electron integral transformation complete.
	(OV|OO)...
	Starting AA/AB first half-transformation.
	Sorting AA/AB half-transformed integrals.
	Starting BB first half-transformation.
	Sorting BB half-transformed integrals.
	First half integral transformation complete.
	Starting AA second half-transformation.
	Starting AB second half-transformation.
	Starting BB second half-transformation.
	Two-electron integral transformation complete.
	(OV|OV)...
	Starting AA second half-transformation.
	Starting AB second half-transformation.
	Starting BB second half-transformation.
	Two-electron integral transformation complete.
	(OV|VV)...
	Starting AA second half-transformation.
	Starting AB second half-transformation.
	Starting BB second half-transformation.
	Two-electron integral transformation complete.
	(VV|OO)...
	Starting AA/AB first half-transformation.
	Sorting AA/AB half-transformed integrals.
	Starting BB first half-transformation.
	Sorting BB half-transformed integrals.
	First half integral transformation complete.
	Starting AA second half-transformation.
	Starting AB second half-transformation.
	Starting BB second half-transformation.
	Two-electron integral transformation complete.
	(VV|OV)...
	Starting AA second half-transformation.
	Starting AB second half-transformation.
	Starting BB second half-transformation.
	Two-electron integral transformation complete.
	(VV|VV)...
	Starting AA second half-transformation.
	Starting AB second half-transformation.
	Starting BB second half-transformation.
	Two-electron integral transformation complete.
	Frozen core energy     =  -1525.20978998467285

	Size of irrep 0 of <AB|CD> integrals:     29.387 (MW) /    235.098 (MB)
	Size of irrep 1 of <AB|CD> integrals:     22.392 (MW) /    179.135 (MB)
	Total:                                    51.779 (MW) /    414.233 (MB)

	Size of irrep 0 of <ab|cd> integrals:     29.954 (MW) /    239.630 (MB)
	Size of irrep 1 of <ab|cd> integrals:     23.261 (MW) /    186.091 (MB)
	Total:                                    53.215 (MW) /    425.720 (MB)

	Size of irrep 0 of <Ab|Cd> integrals:    121.815 (MW) /    974.523 (MB)
	Size of irrep 1 of <Ab|Cd> integrals:     91.298 (MW) /    730.384 (MB)
	Total:                                   213.113 (MW) /   1704.907 (MB)

	Size of irrep 0 of <IA|BC> integrals:      6.141 (MW) /     49.125 (MB)
	Size of irrep 1 of <IA|BC> integrals:      4.183 (MW) /     33.465 (MB)
	Total:                                    10.324 (MW) /     82.590 (MB)

	Size of irrep 0 of <ia|bc> integrals:      5.634 (MW) /     45.070 (MB)
	Size of irrep 1 of <ia|bc> integrals:      3.434 (MW) /     27.472 (MB)
	Total:                                     9.068 (MW) /     72.542 (MB)

	Size of irrep 0 of <Ia|Bc> integrals:      6.192 (MW) /     49.534 (MB)
	Size of irrep 1 of <Ia|Bc> integrals:      4.271 (MW) /     34.169 (MB)
	Total:                                    10.463 (MW) /     83.703 (MB)

	Size of irrep 0 of <iA|bC> integrals:      5.596 (MW) /     44.766 (MB)
	Size of irrep 1 of <iA|bC> integrals:      3.354 (MW) /     26.830 (MB)
	Total:                                     8.950 (MW) /     71.597 (MB)

	Size of irrep 0 of tIjAb amplitudes:       0.298 (MW) /      2.384 (MB)
	Size of irrep 1 of tIjAb amplitudes:       0.143 (MW) /      1.147 (MB)
	Total:                                     0.441 (MW) /      3.531 (MB)

	Nuclear Rep. energy          =    162.01025849517663
	SCF energy                   =  -1394.31340636488653
	One-electron energy          =    -55.87151244864263
	Two-electron (AA) energy     =      6.08186995669770
	Two-electron (BB) energy     =      4.34673605712846
	Two-electron (AB) energy     =     14.32903155941775
	Two-electron energy          =     24.75763757324391
	Reference energy             =  -1394.31340636489494

*** tstop() called on d3-3.compute.lan at Sat Mar  6 02:17:04 2021
Module time:
	user time   =     438.07 seconds =       7.30 minutes
	system time =      35.65 seconds =       0.59 minutes
	total time  =        163 seconds =       2.72 minutes
Total time:
	user time   =     827.94 seconds =      13.80 minutes
	system time =      41.44 seconds =       0.69 minutes
	total time  =        358 seconds =       5.97 minutes
            **************************
            *                        *
            *        CCENERGY        *
            *                        *
            **************************

    Nuclear Rep. energy (wfn)     =  162.010258495176629
    SCF energy          (wfn)     = -1394.313406364886532
    Reference energy    (file100) = -1394.313406364894945

    Input parameters:
    -----------------
    Wave function   =     CCSD_T
    Reference wfn   =     UHF
    Brueckner       =     No
    Memory (Mbytes) =     46000.0
    Maxiter         =     50
    R_Convergence   =     1.0e-10
    E_Convergence   =     1.0e-10
    Restart         =     Yes
    DIIS            =     Yes
    AO Basis        =     NONE
    ABCD            =     NEW
    Cache Level     =     2
    Cache Type      =     LRU
    Print Level     =     1
    Num. of threads =     12
    # Amps to Print =     10
    Print MP2 Amps? =     No
    Analyze T2 Amps =     No
    Print Pair Ener =     No
    Local CC        =     No
    SCS-MP2         =     False
    SCSN-MP2        =     False
    SCS-CCSD        =     False

MP2 correlation energy -0.3450920066948946
                Solving CC Amplitude Equations
                ------------------------------
  Iter             Energy              RMS        T1Diag      D1Diag    New D1Diag    D2Diag
  ----     ---------------------    ---------   ----------  ----------  ----------   --------
     0        -0.345092006694895    0.000e+00    0.000000    0.000000    0.000000    0.000000
     1        -0.358657345495367    8.249e-02    0.015926    0.000000    0.000000    0.000000
     2        -0.369322683740492    2.600e-02    0.018550    0.000000    0.000000    0.000000
     3        -0.371511802605163    1.236e-02    0.022089    0.000000    0.000000    0.000000
     4        -0.371396265200277    3.435e-03    0.023168    0.000000    0.000000    0.000000
     5        -0.371361382606148    1.414e-03    0.023450    0.000000    0.000000    0.000000
     6        -0.371354994416434    6.115e-04    0.023537    0.000000    0.000000    0.000000
     7        -0.371351730625958    3.089e-04    0.023564    0.000000    0.000000    0.000000
     8        -0.371352867740524    1.661e-04    0.023569    0.000000    0.000000    0.000000
     9        -0.371356523129877    9.477e-05    0.023570    0.000000    0.000000    0.000000
    10        -0.371355097743627    5.130e-05    0.023572    0.000000    0.000000    0.000000
    11        -0.371354923088309    2.258e-05    0.023571    0.000000    0.000000    0.000000
    12        -0.371354548220957    1.097e-05    0.023572    0.000000    0.000000    0.000000
    13        -0.371354366910839    5.466e-06    0.023572    0.000000    0.000000    0.000000
    14        -0.371354362466295    2.993e-06    0.023572    0.000000    0.000000    0.000000
    15        -0.371354366778495    1.874e-06    0.023572    0.000000    0.000000    0.000000
    16        -0.371354366769485    1.052e-06    0.023572    0.000000    0.000000    0.000000

      * MP2 total energy                      = -1394.658498371589758
      * CCSD total energy                     = -1394.684760736376575
      * CCSD(T) total energy                     = -1394.706862559035017
*** Psi4 exiting successfully. Buy a developer a beer!
