                               Psi4 1.3.2 release

  ==> Input File <==

--------------------------------------------------------------------------
memory 46 GB

basis jerome {
assign pot
assign S aug-cc-pV(T+d)Z

[pot]
spherical
****
 K  0
 S 23 1.00
    2.709796E+07     4.136110E-07
    3.592856E+06     3.860330E-06
    7.222638E+05     2.394640E-05
    1.833976E+05     1.157540E-04
    5.464812E+04     4.697010E-04
    1.830913E+04     1.673720E-03
    6.712501E+03     5.370450E-03
    2.643719E+03     1.572510E-02
    1.103835E+03     4.193360E-02
    4.836777E+02     9.987620E-02
    2.206245E+02     2.019680E-01
    1.041117E+02     3.146270E-01
    5.052749E+01     3.107540E-01
    2.485247E+01     1.421920E-01
    1.128102E+01     1.658490E-02
    5.510166E+00    -2.759760E-04
    2.706914E+00     5.158310E-04
    1.122807E+00    -2.268950E-04
    5.236385E-01     6.652980E-05
    2.355180E-01    -3.685150E-05
    4.157977E-02     1.925250E-05
    2.555456E-02    -2.108420E-05
    1.471495E-02     7.044600E-06
 S 23 1.00
    2.709796E+07    -1.188290E-07
    3.592856E+06    -1.108550E-06
    7.222638E+05    -6.881230E-06
    1.833976E+05    -3.324150E-05
    5.464812E+04    -1.350850E-04
    1.830913E+04    -4.814570E-04
    6.712501E+03    -1.552620E-03
    2.643719E+03    -4.578330E-03
    1.103835E+03    -1.247930E-02
    4.836777E+02    -3.094650E-02
    2.206245E+02    -6.855530E-02
    1.041117E+02    -1.268300E-01
    5.052749E+01    -1.745020E-01
    2.485247E+01    -9.089560E-02
    1.128102E+01     2.506960E-01
    5.510166E+00     5.589630E-01
    2.706914E+00     3.284370E-01
    1.122807E+00     3.392170E-02
    5.236385E-01    -2.100280E-03
    2.355180E-01     1.383960E-03
    4.157977E-02    -5.315630E-04
    2.555456E-02     5.770310E-04
    1.471495E-02    -1.931440E-04
 S 23 1.00
    2.709796E+07     3.917470E-08
    3.592856E+06     3.650640E-07
    7.222638E+05     2.269460E-06
    1.833976E+05     1.094290E-05
    5.464812E+04     4.457360E-05
    1.830913E+04     1.584480E-04
    6.712501E+03     5.128440E-04
    2.643719E+03     1.507690E-03
    1.103835E+03     4.136940E-03
    4.836777E+02     1.024690E-02
    2.206245E+02     2.306520E-02
    1.041117E+02     4.308900E-02
    5.052749E+01     6.238120E-02
    2.485247E+01     3.270420E-02
    1.128102E+01    -1.021980E-01
    5.510166E+00    -3.317970E-01
    2.706914E+00    -3.030100E-01
    1.122807E+00     3.098410E-01
    5.236385E-01     6.732700E-01
    2.355180E-01     2.812200E-01
    4.157977E-02     9.376240E-03
    2.555456E-02    -6.955720E-03
    1.471495E-02     2.069460E-03
 S 23 1.00
    2.709796E+07    -7.564440E-09
    3.592856E+06    -7.055390E-08
    7.222638E+05    -4.380820E-07
    1.833976E+05    -2.115540E-06
    5.464812E+04    -8.601300E-06
    1.830913E+04    -3.064440E-05
    6.712501E+03    -9.892550E-05
    2.643719E+03    -2.917760E-04
    1.103835E+03    -7.977860E-04
    4.836777E+02    -1.985820E-03
    2.206245E+02    -4.449740E-03
    1.041117E+02    -8.390260E-03
    5.052749E+01    -1.206000E-02
    2.485247E+01    -6.568410E-03
    1.128102E+01     2.061430E-02
    5.510166E+00     6.770060E-02
    2.706914E+00     6.639570E-02
    1.122807E+00    -8.237770E-02
    5.236385E-01    -1.727150E-01
    2.355180E-01    -2.310290E-01
    4.157977E-02     5.090040E-01
    2.555456E-02     3.472180E-01
    1.471495E-02     2.809620E-01
 S 1 1.00
    2.555456E-02     1.000000E+00
 S 1 1.00
    1.471495E-02     1.000000E+00
 S 1 1.00
    8.470000E-03     1.000000E+00
 P 16 1.00
    9.533309E+03     4.212010E-05
    1.852081E+03     5.068300E-04
    5.464251E+02     3.311700E-03
    1.966947E+02     1.536840E-02
    7.964112E+01     5.457060E-02
    3.488324E+01     1.473880E-01
    1.604479E+01     2.879240E-01
    7.575632E+00     3.750810E-01
    3.672548E+00     2.545160E-01
    1.771130E+00     6.059280E-02
    8.515199E-01     2.508370E-03
    4.016017E-01     6.688870E-04
    1.851933E-01    -1.486150E-04
    5.523390E-02     4.936010E-05
    2.431085E-02    -3.513850E-05
    1.080339E-02     1.171450E-05
 P 16 1.00
    9.533309E+03    -1.280760E-05
    1.852081E+03    -1.547870E-04
    5.464251E+02    -1.010940E-03
    1.966947E+02    -4.738330E-03
    7.964112E+01    -1.703260E-02
    3.488324E+01    -4.754130E-02
    1.604479E+01    -9.560810E-02
    7.575632E+00    -1.337000E-01
    3.672548E+00    -7.425060E-02
    1.771130E+00     1.646810E-01
    8.515199E-01     4.057630E-01
    4.016017E-01     4.113600E-01
    1.851933E-01     1.734240E-01
    5.523390E-02     1.253640E-02
    2.431085E-02    -3.267140E-03
    1.080339E-02     1.039680E-03
 P 16 1.00
    9.533309E+03     1.764010E-06
    1.852081E+03     2.124880E-05
    5.464251E+02     1.392500E-04
    1.966947E+02     6.509140E-04
    7.964112E+01     2.349940E-03
    3.488324E+01     6.547470E-03
    1.604479E+01     1.326270E-02
    7.575632E+00     1.848520E-02
    3.672548E+00     1.025530E-02
    1.771130E+00    -2.652150E-02
    8.515199E-01    -6.086460E-02
    4.016017E-01    -7.474220E-02
    1.851933E-01    -4.870880E-02
    5.523390E-02     2.245720E-01
    2.431085E-02     5.839280E-01
    1.080339E-02     2.980960E-01
 P 1 1.00
    5.523390E-02     1.000000E+00
 P 1 1.00
    1.080339E-02     1.000000E+00
 P 1 1.00
    4.800000E-03     1.000000E+00
 D 6 1.00
    5.670903E+00     8.285900E-03
    1.459042E+00     2.332530E-02
    5.431827E-01     4.878080E-02
    1.346875E-01     7.349020E-02
    5.516013E-02     2.387630E-01
    1.501876E-02     8.253200E-01
 D 1 1.00
    5.516013E-02     1.000000E+00
 D 1 1.00
    1.501876E-02     1.000000E+00
 D 1 1.00
    6.010000E-03     1.000000E+00
 F 1 1.00
    8.493750E-02     1.000000E+00
 F 1 1.00
    3.398000E-02     1.000000E+00
 ****
}

molecule  {
0 2
S   -1.195494288700    1.038558180400    0.000000000000
S   -1.195227929100   -1.038404474900    0.000000000000
K    1.961731770400   -0.000126124700    0.000000000000
}
set {
basis jerome
reference uhf
g_convergence gau_verytight
e_convergence 10
scf_type pk
freeze_core true
geom_maxiter 100
}

set ccenergy {
e_convergence 10
r_convergence 10
}

e = energy('ccsd(t)')

print_out('Stephenergy {}'.format(e))

--------------------------------------------------------------------------

    Molecular point group: cs

    Geometry (in Angstrom), charge = 0, multiplicity = 2:

       Center              X                  Y                   Z               Mass
    ------------   -----------------  -----------------  -----------------  -----------------
         S           -1.195494288712     1.038558180425     0.000000000000    31.972071174400
         S           -1.195227929112    -1.038404474875     0.000000000000    31.972071174400
         K            1.961731770388    -0.000126124675     0.000000000000    38.963706486400

  Charge       = 0
  Multiplicity = 2
  Basis Set: JEROME
    Blend: AUG-CC-PV(T+D)Z + POT

    Orbital Energies [Eh]
    ---------------------

    Alpha Occupied:

       1Ap  -133.559638     2Ap   -91.906652     3Ap   -91.906635
       4Ap   -14.515894     1App  -11.545911     5Ap   -11.545828
       6Ap   -11.545754     7Ap    -8.904164     8Ap    -8.903994
       2App   -6.593151     3App   -6.593125     9Ap    -6.583043
      10Ap    -6.582676    11Ap    -6.581488    12Ap    -6.581461
      13Ap    -1.773860     4App   -0.982955    14Ap    -0.981739
      15Ap    -0.981388    16Ap    -0.944570    17Ap    -0.757577
       5App   -0.414018    18Ap    -0.402817    19Ap    -0.386163
       6App   -0.296050    20Ap    -0.260631

    Alpha Virtual:

      21Ap    -0.019897     7App    0.002172    22Ap     0.002630
      23Ap     0.005694    24Ap     0.016456     8App    0.017141
      25Ap     0.017264     9App    0.019895    26Ap     0.020822
      27Ap     0.022363    10App    0.022865    28Ap     0.028726
      29Ap     0.032855    30Ap     0.051011    11App    0.051140
      31Ap     0.055475    12App    0.058849    32Ap     0.061864
      13App    0.073585    33Ap     0.074484    34Ap     0.088214
      35Ap     0.104499    36Ap     0.108402    37Ap     0.125502
      14App    0.125672    38Ap     0.128646    39Ap     0.128778
      15App    0.129773    16App    0.133149    40Ap     0.133832
      41Ap     0.150440    17App    0.152720    42Ap     0.153540
      18App    0.167035    43Ap     0.170548    44Ap     0.174854
      19App    0.178461    20App    0.186398    45Ap     0.206764
      46Ap     0.207621    47Ap     0.221463    21App    0.233525
      48Ap     0.244622    49Ap     0.267888    50Ap     0.310686
      51Ap     0.310897    22App    0.337535    52Ap     0.350660
      53Ap     0.362711    23App    0.375761    24App    0.381784
      54Ap     0.383545    25App    0.386399    55Ap     0.391626
      56Ap     0.391667    26App    0.394177    57Ap     0.406259
      27App    0.407372    58Ap     0.428279    59Ap     0.431056
      60Ap     0.439843    28App    0.452911    29App    0.456748
      61Ap     0.463017    30App    0.466736    62Ap     0.488104
      63Ap     0.514869    64Ap     0.537791    31App    0.666904
      32App    0.703407    65Ap     0.709173    33App    0.711252
      66Ap     0.730749    67Ap     0.746996    68Ap     0.785639
      34App    0.801245    69Ap     0.814115    70Ap     0.815390
      35App    0.850865    71Ap     0.856552    72Ap     0.870941
      36App    0.892204    73Ap     0.909465    37App    0.914803
      74Ap     0.947804    75Ap     0.948254    76Ap     0.962249
      38App    1.012354    77Ap     1.018999    39App    1.048291
      78Ap     1.052821    79Ap     1.078945    40App    1.161791
      80Ap     1.197081    81Ap     1.197724    41App    1.202536
      82Ap     1.218629    42App    1.363513    83Ap     1.395150
      84Ap     1.462041    85Ap     1.677234    43App    2.031405
      86Ap     2.036060    44App    2.064608    87Ap     2.067246
      45App    2.078999    88Ap     2.096728    89Ap     2.132273
      46App    2.214705    90Ap     2.284191    47App    2.287187
      91Ap     2.291867    92Ap     2.312091    93Ap     2.372237
      48App    2.378918    94Ap     2.413095    49App    2.421755
      95Ap     2.450562    96Ap     2.473468    50App    2.485716
      51App    2.504875    52App    2.561265    97Ap     2.581518
      53App    2.584919    98Ap     2.668802    99Ap     2.685605
     100Ap     2.707513   101Ap     2.726401    54App    2.867646
     102Ap     2.898833   103Ap     3.989692   104Ap     4.955417
     105Ap     5.750120    55App    7.416982   106Ap     7.419759
     107Ap     7.436045    56App    7.436322    57App    7.438719
     108Ap     7.461732    58App    7.509633   109Ap     7.532330
     110Ap     7.597099   111Ap     7.607863

    Beta Occupied:

       1Ap  -133.559660     2Ap   -91.901063     3Ap   -91.901047
       4Ap   -14.515924     1App  -11.545945     5Ap   -11.545862
       6Ap   -11.545785     7Ap    -8.898089     8Ap    -8.897880
       9Ap    -6.580343    10Ap    -6.579962    11Ap    -6.577945
      12Ap    -6.577921     2App   -6.568680     3App   -6.568643
      13Ap    -1.774022     4App   -0.983115    14Ap    -0.981886
      15Ap    -0.980412    16Ap    -0.906289    17Ap    -0.686965
      18Ap    -0.386900    19Ap    -0.377632     5App   -0.289278
      20Ap    -0.247633

    Beta Virtual:

      21Ap    -0.019908     6App    0.002202    22Ap     0.002644
      23Ap     0.005682    24Ap     0.016451     7App    0.016970
      25Ap     0.017265     8App    0.019936    26Ap     0.020847
      27Ap     0.022412     9App    0.022958    28Ap     0.028728
      29Ap     0.032765    10App    0.046989    30Ap     0.050978
      31Ap     0.055744    11App    0.059303    32Ap     0.061831
      12App    0.065042    13App    0.073769    33Ap     0.074678
      34Ap     0.087876    35Ap     0.104282    36Ap     0.110109
      37Ap     0.125703    14App    0.125788    38Ap     0.128607
      39Ap     0.129630    15App    0.129696    40Ap     0.133877
      16App    0.134980    41Ap     0.150299    42Ap     0.153792
      17App    0.164162    18App    0.171847    43Ap     0.172108
      44Ap     0.174534    19App    0.183763    20App    0.187114
      45Ap     0.207577    46Ap     0.212242    47Ap     0.224270
      21App    0.233744    48Ap     0.245237    49Ap     0.267059
      50Ap     0.313719    51Ap     0.317306    52Ap     0.351906
      22App    0.356528    53Ap     0.366882    54Ap     0.383855
      23App    0.384532    24App    0.388640    25App    0.389656
      55Ap     0.391530    56Ap     0.395669    26App    0.396029
      27App    0.407416    57Ap     0.408614    58Ap     0.430935
      59Ap     0.433709    60Ap     0.442861    28App    0.462595
      61Ap     0.468797    29App    0.470024    30App    0.475465
      62Ap     0.488986    63Ap     0.518475    64Ap     0.538518
      31App    0.686388    65Ap     0.716925    66Ap     0.736528
      32App    0.739678    33App    0.741863    67Ap     0.749447
      68Ap     0.798402    69Ap     0.814388    34App    0.818288
      70Ap     0.831404    71Ap     0.868859    35App    0.885481
      72Ap     0.895478    73Ap     0.915070    36App    0.921883
      37App    0.925272    74Ap     0.951513    75Ap     0.960368
      76Ap     0.966088    38App    1.024775    77Ap     1.030038
      78Ap     1.054745    39App    1.058867    79Ap     1.085288
      40App    1.173967    80Ap     1.196786    81Ap     1.207194
      41App    1.209104    82Ap     1.220720    42App    1.379680
      83Ap     1.397183    84Ap     1.474939    85Ap     1.692660
      43App    2.046626    86Ap     2.050779    44App    2.079653
      87Ap     2.082269    45App    2.094926    88Ap     2.098899
      89Ap     2.134472    46App    2.236761    90Ap     2.289035
      91Ap     2.294018    47App    2.303965    92Ap     2.314878
      93Ap     2.385271    48App    2.391632    94Ap     2.425149
      49App    2.454126    95Ap     2.461902    96Ap     2.495823
      50App    2.508722    51App    2.531929    52App    2.585816
      97Ap     2.597712    53App    2.601192    98Ap     2.674326
      99Ap     2.690107   100Ap     2.711993   101Ap     2.732211
      54App    2.888746   102Ap     2.901544   103Ap     3.993194
     104Ap     4.966586   105Ap     5.760459    55App    7.423179
     106Ap     7.426082   107Ap     7.442577    56App    7.442842
      57App    7.444776   108Ap     7.462810    58App    7.515592
     109Ap     7.533210   110Ap     7.599038   111Ap     7.609747

    Final Occupation by Irrep:
             Ap   App
    DOCC [    20,    5 ]
    SOCC [     0,    1 ]

  @UHF Final Energy: -1394.31345098223710

   => Energetics <=

    Nuclear Repulsion Energy =            162.0321362551752884
    One-Electron Energy =               -2249.2811078160821125
    Two-Electron Energy =                 692.9355205786697525
    Total Energy =                      -1394.3134509822371001

  UHF NO Occupations:
  HONO-2 :   20 Ap 1.9974861
  HONO-1 :    5App 1.9869051
  HONO-0 :    6App 1.0000000
  LUNO+0 :    7App 0.0130949
  LUNO+1 :   21 Ap 0.0025139
  LUNO+2 :   22 Ap 0.0022668
  LUNO+3 :   23 Ap 0.0003117

Computation Completed

Properties will be evaluated at   0.000000,   0.000000,   0.000000 [a0]

Properties computed using the SCF density matrix

  Nuclear Dipole Moment: [e a0]
     X:    -1.8494      Y:     0.0001      Z:     0.0000

  Electronic Dipole Moment: [e a0]
     X:     6.6349      Y:    -0.0002      Z:     0.0000

  Dipole Moment: [e a0]
     X:     4.7855      Y:    -0.0001      Z:     0.0000     Total:     4.7855

  Dipole Moment: [D]
     X:    12.1636      Y:    -0.0002      Z:     0.0000     Total:    12.1636

*** tstop() called on c4-21.compute.lan at Fri Mar  5 16:15:18 2021
Module time:
	user time   =     231.14 seconds =       3.85 minutes
	system time =       1.71 seconds =       0.03 minutes
	total time  =         61 seconds =       1.02 minutes
Total time:
	user time   =     231.14 seconds =       3.85 minutes
	system time =       1.71 seconds =       0.03 minutes
	total time  =         61 seconds =       1.02 minutes
 MINTS: Wrapper to libmints.
   by Justin Turney

   Calculation information:
      Number of threads:                12
      Number of atoms:                   3
      Number of AO shells:              53
      Number of SO shells:              53
      Number of primitives:            287
      Number of atomic orbitals:       199
      Number of basis functions:       169

      Number of irreps:                  2
      Integral cutoff                 0.00e+00
      Number of functions per irrep: [ 111   58 ]

 OEINTS: Overlap, kinetic, potential, dipole, and quadrupole integrals
         stored in file 35.

      Computing two-electron integrals...done
      Computed 51039219 non-zero two-electron integrals.
        Stored in file 33.

*** tstart() called on c4-21.compute.lan
*** at Fri Mar  5 16:16:56 2021

	Wfn Parameters:
	--------------------
	Wavefunction         = CCSD_T
	Number of irreps     = 2
	Number of MOs        = 169
	Number of active MOs = 150
	AO-Basis             = NONE
	Semicanonical        = false
	Reference            = UHF
	Print Level          = 1

	IRREP	# MOs	# FZDC	# DOCC	# SOCC	# VIRT	# FZVR
	-----	-----	------	------	------	------	------
	 Ap	   111	    15	    5	    0	    91	    0
	 App	   58	    4	    1	    1	    52	    0
	Transforming integrals...
	IWL integrals will be deleted.
	(OO|OO)...
	Presorting SO-basis two-electron integrals.
	Sorting File: SO Ints (nn|nn) nbuckets = 1
	Transforming the one-electron integrals and constructing Fock matrices
	Starting AA/AB first half-transformation.
	Sorting AA/AB half-transformed integrals.
	Starting BB first half-transformation.
	Sorting BB half-transformed integrals.
	First half integral transformation complete.
	Starting AA second half-transformation.
	Starting AB second half-transformation.
	Starting BB second half-transformation.
	Two-electron integral transformation complete.
	(OO|OV)...
	Starting AA second half-transformation.
	Starting AB second half-transformation.
	Starting BB second half-transformation.
	Two-electron integral transformation complete.
	(OO|VV)...
	Starting AA second half-transformation.
	Starting AB second half-transformation.
	Starting BB second half-transformation.
	Two-electron integral transformation complete.
	(OV|OO)...
	Starting AA/AB first half-transformation.
	Sorting AA/AB half-transformed integrals.
	Starting BB first half-transformation.
	Sorting BB half-transformed integrals.
	First half integral transformation complete.
	Starting AA second half-transformation.
	Starting AB second half-transformation.
	Starting BB second half-transformation.
	Two-electron integral transformation complete.
	(OV|OV)...
	Starting AA second half-transformation.
	Starting AB second half-transformation.
	Starting BB second half-transformation.
	Two-electron integral transformation complete.
	(OV|VV)...
	Starting AA second half-transformation.
	Starting AB second half-transformation.
	Starting BB second half-transformation.
	Two-electron integral transformation complete.
	(VV|OO)...
	Starting AA/AB first half-transformation.
	Sorting AA/AB half-transformed integrals.
	Starting BB first half-transformation.
	Sorting BB half-transformed integrals.
	First half integral transformation complete.
	Starting AA second half-transformation.
	Starting AB second half-transformation.
	Starting BB second half-transformation.
	Two-electron integral transformation complete.
	(VV|OV)...
	Starting AA second half-transformation.
	Starting AB second half-transformation.
	Starting BB second half-transformation.
	Two-electron integral transformation complete.
	(VV|VV)...
	Starting AA second half-transformation.
	Starting AB second half-transformation.
	Starting BB second half-transformation.
	Two-electron integral transformation complete.
	Frozen core energy     =  -1525.22990082769138

	Size of irrep 0 of <AB|CD> integrals:     29.387 (MW) /    235.098 (MB)
	Size of irrep 1 of <AB|CD> integrals:     22.392 (MW) /    179.135 (MB)
	Total:                                    51.779 (MW) /    414.233 (MB)

	Size of irrep 0 of <ab|cd> integrals:     29.954 (MW) /    239.630 (MB)
	Size of irrep 1 of <ab|cd> integrals:     23.261 (MW) /    186.091 (MB)
	Total:                                    53.215 (MW) /    425.720 (MB)

	Size of irrep 0 of <Ab|Cd> integrals:    121.815 (MW) /    974.523 (MB)
	Size of irrep 1 of <Ab|Cd> integrals:     91.298 (MW) /    730.384 (MB)
	Total:                                   213.113 (MW) /   1704.907 (MB)

	Size of irrep 0 of <IA|BC> integrals:      6.141 (MW) /     49.125 (MB)
	Size of irrep 1 of <IA|BC> integrals:      4.183 (MW) /     33.465 (MB)
	Total:                                    10.324 (MW) /     82.590 (MB)

	Size of irrep 0 of <ia|bc> integrals:      5.634 (MW) /     45.070 (MB)
	Size of irrep 1 of <ia|bc> integrals:      3.434 (MW) /     27.472 (MB)
	Total:                                     9.068 (MW) /     72.542 (MB)

	Size of irrep 0 of <Ia|Bc> integrals:      6.192 (MW) /     49.534 (MB)
	Size of irrep 1 of <Ia|Bc> integrals:      4.271 (MW) /     34.169 (MB)
	Total:                                    10.463 (MW) /     83.703 (MB)

	Size of irrep 0 of <iA|bC> integrals:      5.596 (MW) /     44.766 (MB)
	Size of irrep 1 of <iA|bC> integrals:      3.354 (MW) /     26.830 (MB)
	Total:                                     8.950 (MW) /     71.597 (MB)

	Size of irrep 0 of tIjAb amplitudes:       0.298 (MW) /      2.384 (MB)
	Size of irrep 1 of tIjAb amplitudes:       0.143 (MW) /      1.147 (MB)
	Total:                                     0.441 (MW) /      3.531 (MB)

	Nuclear Rep. energy          =    162.03213625517529
	SCF energy                   =  -1394.31345098223710
	One-electron energy          =    -55.87484651766142
	Two-electron (AA) energy     =      6.08212148311391
	Two-electron (BB) energy     =      4.34725101235144
	Two-electron (AB) energy     =     14.32978761245996
	Two-electron energy          =     24.75916010792531
	Reference energy             =  -1394.31345098225211

*** tstop() called on c4-21.compute.lan at Fri Mar  5 16:18:57 2021
Module time:
	user time   =     335.98 seconds =       5.60 minutes
	system time =      34.01 seconds =       0.57 minutes
	total time  =        121 seconds =       2.02 minutes
Total time:
	user time   =     667.68 seconds =      11.13 minutes
	system time =      37.20 seconds =       0.62 minutes
	total time  =        280 seconds =       4.67 minutes
            **************************
            *                        *
            *        CCENERGY        *
            *                        *
            **************************

    Nuclear Rep. energy (wfn)     =  162.032136255175288
    SCF energy          (wfn)     = -1394.313450982237100
    Reference energy    (file100) = -1394.313450982252107

    Input parameters:
    -----------------
    Wave function   =     CCSD_T
    Reference wfn   =     UHF
    Brueckner       =     No
    Memory (Mbytes) =     46000.0
    Maxiter         =     50
    R_Convergence   =     1.0e-10
    E_Convergence   =     1.0e-10
    Restart         =     Yes
    DIIS            =     Yes
    AO Basis        =     NONE
    ABCD            =     NEW
    Cache Level     =     2
    Cache Type      =     LRU
    Print Level     =     1
    Num. of threads =     12
    # Amps to Print =     10
    Print MP2 Amps? =     No
    Analyze T2 Amps =     No
    Print Pair Ener =     No
    Local CC        =     No
    SCS-MP2         =     False
    SCSN-MP2        =     False
    SCS-CCSD        =     False

MP2 correlation energy -0.3450593967303896
                Solving CC Amplitude Equations
                ------------------------------
  Iter             Energy              RMS        T1Diag      D1Diag    New D1Diag    D2Diag
  ----     ---------------------    ---------   ----------  ----------  ----------   --------
     0        -0.345059396730390    0.000e+00    0.000000    0.000000    0.000000    0.000000
     1        -0.358626676058184    8.245e-02    0.015918    0.000000    0.000000    0.000000
     2        -0.369287555208703    2.599e-02    0.018542    0.000000    0.000000    0.000000
     3        -0.371474644459307    1.235e-02    0.022079    0.000000    0.000000    0.000000
     4        -0.371359206279093    3.433e-03    0.023157    0.000000    0.000000    0.000000
     5        -0.371324336285537    1.414e-03    0.023439    0.000000    0.000000    0.000000
     6        -0.371317957639293    6.113e-04    0.023525    0.000000    0.000000    0.000000
     7        -0.371314698122396    3.087e-04    0.023553    0.000000    0.000000    0.000000
     8        -0.371315831308288    1.659e-04    0.023558    0.000000    0.000000    0.000000
     9        -0.371319483590871    9.465e-05    0.023559    0.000000    0.000000    0.000000
    10        -0.371318061422970    5.122e-05    0.023561    0.000000    0.000000    0.000000
    11        -0.371317885660059    2.254e-05    0.023560    0.000000    0.000000    0.000000
    12        -0.371317511424714    1.095e-05    0.023561    0.000000    0.000000    0.000000
    13        -0.371317330279959    5.455e-06    0.023561    0.000000    0.000000    0.000000
    14        -0.371317325662719    2.986e-06    0.023561    0.000000    0.000000    0.000000
    15        -0.371317329934062    1.868e-06    0.023561    0.000000    0.000000    0.000000
    16        -0.371317329923899    1.049e-06    0.023560    0.000000    0.000000    0.000000

      * MP2 total energy                      = -1394.658510378982555
      * CCSD total energy                     = -1394.684768316870304
      * CCSD(T) total energy                     = -1394.706862801543821
*** Psi4 exiting successfully. Buy a developer a beer!
