                               Psi4 1.3.2 release

  ==> Input File <==

--------------------------------------------------------------------------
memory 46 GB

basis jerome {
assign pot
assign S aug-cc-pV(T+d)Z

[pot]
spherical
****
 K  0
 S 23 1.00
    2.709796E+07     4.136110E-07
    3.592856E+06     3.860330E-06
    7.222638E+05     2.394640E-05
    1.833976E+05     1.157540E-04
    5.464812E+04     4.697010E-04
    1.830913E+04     1.673720E-03
    6.712501E+03     5.370450E-03
    2.643719E+03     1.572510E-02
    1.103835E+03     4.193360E-02
    4.836777E+02     9.987620E-02
    2.206245E+02     2.019680E-01
    1.041117E+02     3.146270E-01
    5.052749E+01     3.107540E-01
    2.485247E+01     1.421920E-01
    1.128102E+01     1.658490E-02
    5.510166E+00    -2.759760E-04
    2.706914E+00     5.158310E-04
    1.122807E+00    -2.268950E-04
    5.236385E-01     6.652980E-05
    2.355180E-01    -3.685150E-05
    4.157977E-02     1.925250E-05
    2.555456E-02    -2.108420E-05
    1.471495E-02     7.044600E-06
 S 23 1.00
    2.709796E+07    -1.188290E-07
    3.592856E+06    -1.108550E-06
    7.222638E+05    -6.881230E-06
    1.833976E+05    -3.324150E-05
    5.464812E+04    -1.350850E-04
    1.830913E+04    -4.814570E-04
    6.712501E+03    -1.552620E-03
    2.643719E+03    -4.578330E-03
    1.103835E+03    -1.247930E-02
    4.836777E+02    -3.094650E-02
    2.206245E+02    -6.855530E-02
    1.041117E+02    -1.268300E-01
    5.052749E+01    -1.745020E-01
    2.485247E+01    -9.089560E-02
    1.128102E+01     2.506960E-01
    5.510166E+00     5.589630E-01
    2.706914E+00     3.284370E-01
    1.122807E+00     3.392170E-02
    5.236385E-01    -2.100280E-03
    2.355180E-01     1.383960E-03
    4.157977E-02    -5.315630E-04
    2.555456E-02     5.770310E-04
    1.471495E-02    -1.931440E-04
 S 23 1.00
    2.709796E+07     3.917470E-08
    3.592856E+06     3.650640E-07
    7.222638E+05     2.269460E-06
    1.833976E+05     1.094290E-05
    5.464812E+04     4.457360E-05
    1.830913E+04     1.584480E-04
    6.712501E+03     5.128440E-04
    2.643719E+03     1.507690E-03
    1.103835E+03     4.136940E-03
    4.836777E+02     1.024690E-02
    2.206245E+02     2.306520E-02
    1.041117E+02     4.308900E-02
    5.052749E+01     6.238120E-02
    2.485247E+01     3.270420E-02
    1.128102E+01    -1.021980E-01
    5.510166E+00    -3.317970E-01
    2.706914E+00    -3.030100E-01
    1.122807E+00     3.098410E-01
    5.236385E-01     6.732700E-01
    2.355180E-01     2.812200E-01
    4.157977E-02     9.376240E-03
    2.555456E-02    -6.955720E-03
    1.471495E-02     2.069460E-03
 S 23 1.00
    2.709796E+07    -7.564440E-09
    3.592856E+06    -7.055390E-08
    7.222638E+05    -4.380820E-07
    1.833976E+05    -2.115540E-06
    5.464812E+04    -8.601300E-06
    1.830913E+04    -3.064440E-05
    6.712501E+03    -9.892550E-05
    2.643719E+03    -2.917760E-04
    1.103835E+03    -7.977860E-04
    4.836777E+02    -1.985820E-03
    2.206245E+02    -4.449740E-03
    1.041117E+02    -8.390260E-03
    5.052749E+01    -1.206000E-02
    2.485247E+01    -6.568410E-03
    1.128102E+01     2.061430E-02
    5.510166E+00     6.770060E-02
    2.706914E+00     6.639570E-02
    1.122807E+00    -8.237770E-02
    5.236385E-01    -1.727150E-01
    2.355180E-01    -2.310290E-01
    4.157977E-02     5.090040E-01
    2.555456E-02     3.472180E-01
    1.471495E-02     2.809620E-01
 S 1 1.00
    2.555456E-02     1.000000E+00
 S 1 1.00
    1.471495E-02     1.000000E+00
 S 1 1.00
    8.470000E-03     1.000000E+00
 P 16 1.00
    9.533309E+03     4.212010E-05
    1.852081E+03     5.068300E-04
    5.464251E+02     3.311700E-03
    1.966947E+02     1.536840E-02
    7.964112E+01     5.457060E-02
    3.488324E+01     1.473880E-01
    1.604479E+01     2.879240E-01
    7.575632E+00     3.750810E-01
    3.672548E+00     2.545160E-01
    1.771130E+00     6.059280E-02
    8.515199E-01     2.508370E-03
    4.016017E-01     6.688870E-04
    1.851933E-01    -1.486150E-04
    5.523390E-02     4.936010E-05
    2.431085E-02    -3.513850E-05
    1.080339E-02     1.171450E-05
 P 16 1.00
    9.533309E+03    -1.280760E-05
    1.852081E+03    -1.547870E-04
    5.464251E+02    -1.010940E-03
    1.966947E+02    -4.738330E-03
    7.964112E+01    -1.703260E-02
    3.488324E+01    -4.754130E-02
    1.604479E+01    -9.560810E-02
    7.575632E+00    -1.337000E-01
    3.672548E+00    -7.425060E-02
    1.771130E+00     1.646810E-01
    8.515199E-01     4.057630E-01
    4.016017E-01     4.113600E-01
    1.851933E-01     1.734240E-01
    5.523390E-02     1.253640E-02
    2.431085E-02    -3.267140E-03
    1.080339E-02     1.039680E-03
 P 16 1.00
    9.533309E+03     1.764010E-06
    1.852081E+03     2.124880E-05
    5.464251E+02     1.392500E-04
    1.966947E+02     6.509140E-04
    7.964112E+01     2.349940E-03
    3.488324E+01     6.547470E-03
    1.604479E+01     1.326270E-02
    7.575632E+00     1.848520E-02
    3.672548E+00     1.025530E-02
    1.771130E+00    -2.652150E-02
    8.515199E-01    -6.086460E-02
    4.016017E-01    -7.474220E-02
    1.851933E-01    -4.870880E-02
    5.523390E-02     2.245720E-01
    2.431085E-02     5.839280E-01
    1.080339E-02     2.980960E-01
 P 1 1.00
    5.523390E-02     1.000000E+00
 P 1 1.00
    1.080339E-02     1.000000E+00
 P 1 1.00
    4.800000E-03     1.000000E+00
 D 6 1.00
    5.670903E+00     8.285900E-03
    1.459042E+00     2.332530E-02
    5.431827E-01     4.878080E-02
    1.346875E-01     7.349020E-02
    5.516013E-02     2.387630E-01
    1.501876E-02     8.253200E-01
 D 1 1.00
    5.516013E-02     1.000000E+00
 D 1 1.00
    1.501876E-02     1.000000E+00
 D 1 1.00
    6.010000E-03     1.000000E+00
 F 1 1.00
    8.493750E-02     1.000000E+00
 F 1 1.00
    3.398000E-02     1.000000E+00
 ****
}

molecule  {
0 2
S   -1.195416567608    1.038542095916    0.000000000000
S   -1.195619383304   -1.038548956479    0.000000000000
K    1.961989207310    0.000005629506    0.000000000000
}
set {
basis jerome
reference uhf
g_convergence gau_verytight
e_convergence 10
scf_type pk
freeze_core true
geom_maxiter 100
}

set ccenergy {
e_convergence 10
r_convergence 10
}

e = energy('ccsd(t)')

print_out('Stephenergy {}'.format(e))

--------------------------------------------------------------------------

    Molecular point group: cs

    Geometry (in Angstrom), charge = 0, multiplicity = 2:

       Center              X                  Y                   Z               Mass
    ------------   -----------------  -----------------  -----------------  -----------------
         S           -1.195416567608     1.038542095916     0.000000000000    31.972071174400
         S           -1.195619383304    -1.038548956479     0.000000000000    31.972071174400
         K            1.961989207310     0.000005629506     0.000000000000    38.963706486400

  Charge       = 0
  Multiplicity = 2
  Basis Set: JEROME
    Blend: AUG-CC-PV(T+D)Z + POT

    Orbital Energies [Eh]
    ---------------------

    Alpha Occupied:

       1Ap  -133.559667     2Ap   -91.906647     3Ap   -91.906638
       4Ap   -14.515922     1App  -11.545939     5Ap   -11.545857
       6Ap   -11.545783     7Ap    -8.904161     8Ap    -8.903990
       2App   -6.593144     3App   -6.593125     9Ap    -6.583039
      10Ap    -6.582673    11Ap    -6.581482    12Ap    -6.581460
      13Ap    -1.773886     4App   -0.982980    14Ap    -0.981765
      15Ap    -0.981404    16Ap    -0.944538    17Ap    -0.757579
       5App   -0.413994    18Ap    -0.402790    19Ap    -0.386137
       6App   -0.296052    20Ap    -0.260629

    Alpha Virtual:

      21Ap    -0.019905     7App    0.002170    22Ap     0.002628
      23Ap     0.005691    24Ap     0.016455     8App    0.017140
      25Ap     0.017263     9App    0.019891    26Ap     0.020819
      27Ap     0.022363    10App    0.022865    28Ap     0.028727
      29Ap     0.032852    30Ap     0.051007    11App    0.051136
      31Ap     0.055474    12App    0.058848    32Ap     0.061862
      13App    0.073579    33Ap     0.074478    34Ap     0.088213
      35Ap     0.104489    36Ap     0.108397    37Ap     0.125498
      14App    0.125668    38Ap     0.128645    39Ap     0.128773
      15App    0.129773    16App    0.133146    40Ap     0.133831
      41Ap     0.150435    17App    0.152712    42Ap     0.153541
      18App    0.167035    43Ap     0.170547    44Ap     0.174850
      19App    0.178456    20App    0.186385    45Ap     0.206747
      46Ap     0.207615    47Ap     0.221450    21App    0.233516
      48Ap     0.244599    49Ap     0.267872    50Ap     0.310678
      51Ap     0.310868    22App    0.337537    52Ap     0.350657
      53Ap     0.362740    23App    0.375744    24App    0.381772
      54Ap     0.383534    25App    0.386385    55Ap     0.391611
      56Ap     0.391683    26App    0.394157    57Ap     0.406255
      27App    0.407355    58Ap     0.428262    59Ap     0.431044
      60Ap     0.439833    28App    0.452916    29App    0.456756
      61Ap     0.462988    30App    0.466724    62Ap     0.488087
      63Ap     0.514847    64Ap     0.537793    31App    0.666888
      32App    0.703418    65Ap     0.709188    33App    0.711249
      66Ap     0.730756    67Ap     0.747024    68Ap     0.785655
      34App    0.801255    69Ap     0.814090    70Ap     0.815376
      35App    0.850862    71Ap     0.856564    72Ap     0.870944
      36App    0.892193    73Ap     0.909450    37App    0.914798
      74Ap     0.947773    75Ap     0.948237    76Ap     0.962215
      38App    1.012342    77Ap     1.018976    39App    1.048276
      78Ap     1.052792    79Ap     1.078923    40App    1.161775
      80Ap     1.197057    81Ap     1.197689    41App    1.202525
      82Ap     1.218595    42App    1.363505    83Ap     1.395140
      84Ap     1.462001    85Ap     1.677222    43App    2.031405
      86Ap     2.036064    44App    2.064599    87Ap     2.067256
      45App    2.078997    88Ap     2.096727    89Ap     2.132316
      46App    2.214714    90Ap     2.284220    47App    2.287211
      91Ap     2.291844    92Ap     2.312114    93Ap     2.372267
      48App    2.378957    94Ap     2.413102    49App    2.421761
      95Ap     2.450553    96Ap     2.473462    50App    2.485708
      51App    2.504861    52App    2.561216    97Ap     2.581481
      53App    2.584883    98Ap     2.668757    99Ap     2.685593
     100Ap     2.707465   101Ap     2.726248    54App    2.867563
     102Ap     2.898756   103Ap     3.989545   104Ap     4.955229
     105Ap     5.750091    55App    7.416984   106Ap     7.419762
     107Ap     7.436049    56App    7.436322    57App    7.438715
     108Ap     7.461736    58App    7.509618   109Ap     7.532307
     110Ap     7.597052   111Ap     7.607895

    Beta Occupied:

       1Ap  -133.559690     2Ap   -91.901058     3Ap   -91.901050
       4Ap   -14.515953     1App  -11.545974     5Ap   -11.545891
       6Ap   -11.545814     7Ap    -8.898085     8Ap    -8.897877
       9Ap    -6.580339    10Ap    -6.579958    11Ap    -6.577939
      12Ap    -6.577919     2App   -6.568675     3App   -6.568640
      13Ap    -1.774048     4App   -0.983140    14Ap    -0.981912
      15Ap    -0.980433    16Ap    -0.906246    17Ap    -0.686967
      18Ap    -0.386876    19Ap    -0.377605     5App   -0.289245
      20Ap    -0.247631

    Beta Virtual:

      21Ap    -0.019916     6App    0.002200    22Ap     0.002641
      23Ap     0.005679    24Ap     0.016450     7App    0.016969
      25Ap     0.017264     8App    0.019933    26Ap     0.020844
      27Ap     0.022412     9App    0.022958    28Ap     0.028728
      29Ap     0.032762    10App    0.046987    30Ap     0.050974
      31Ap     0.055743    11App    0.059302    32Ap     0.061829
      12App    0.065038    13App    0.073763    33Ap     0.074672
      34Ap     0.087875    35Ap     0.104273    36Ap     0.110104
      37Ap     0.125699    14App    0.125784    38Ap     0.128607
      39Ap     0.129625    15App    0.129696    40Ap     0.133876
      16App    0.134978    41Ap     0.150294    42Ap     0.153792
      17App    0.164148    18App    0.171849    43Ap     0.172108
      44Ap     0.174530    19App    0.183764    20App    0.187099
      45Ap     0.207571    46Ap     0.212226    47Ap     0.224256
      21App    0.233734    48Ap     0.245213    49Ap     0.267043
      50Ap     0.313688    51Ap     0.317297    52Ap     0.351904
      22App    0.356526    53Ap     0.366909    54Ap     0.383844
      23App    0.384518    24App    0.388627    25App    0.389640
      55Ap     0.391515    56Ap     0.395684    26App    0.396011
      27App    0.407398    57Ap     0.408611    58Ap     0.430923
      59Ap     0.433690    60Ap     0.442854    28App    0.462602
      61Ap     0.468770    29App    0.470029    30App    0.475454
      62Ap     0.488969    63Ap     0.518454    64Ap     0.538519
      31App    0.686383    65Ap     0.716939    66Ap     0.736535
      32App    0.739680    33App    0.741860    67Ap     0.749470
      68Ap     0.798431    69Ap     0.814359    34App    0.818299
      70Ap     0.831389    71Ap     0.868876    35App    0.885479
      72Ap     0.895484    73Ap     0.915046    36App    0.921879
      37App    0.925263    74Ap     0.951482    75Ap     0.960340
      76Ap     0.966064    38App    1.024762    77Ap     1.030015
      78Ap     1.054720    39App    1.058851    79Ap     1.085265
      40App    1.173951    80Ap     1.196761    81Ap     1.207155
      41App    1.209092    82Ap     1.220689    42App    1.379672
      83Ap     1.397172    84Ap     1.474897    85Ap     1.692650
      43App    2.046628    86Ap     2.050783    44App    2.079645
      87Ap     2.082279    45App    2.094924    88Ap     2.098900
      89Ap     2.134515    46App    2.236768    90Ap     2.289064
      91Ap     2.293995    47App    2.303988    92Ap     2.314902
      93Ap     2.385303    48App    2.391673    94Ap     2.425154
      49App    2.454135    95Ap     2.461896    96Ap     2.495818
      50App    2.508715    51App    2.531912    52App    2.585772
      97Ap     2.597675    53App    2.601154    98Ap     2.674283
      99Ap     2.690097   100Ap     2.711945   101Ap     2.732057
      54App    2.888663   102Ap     2.901467   103Ap     3.993047
     104Ap     4.966398   105Ap     5.760431    55App    7.423181
     106Ap     7.426085   107Ap     7.442580    56App    7.442842
      57App    7.444773   108Ap     7.462814    58App    7.515576
     109Ap     7.533187   110Ap     7.598991   111Ap     7.609780

    Final Occupation by Irrep:
             Ap   App
    DOCC [    20,    5 ]
    SOCC [     0,    1 ]

  @UHF Final Energy: -1394.31342964286159

   => Energetics <=

    Nuclear Repulsion Energy =            162.0160579738845570
    One-Electron Energy =               -2249.2487310748629170
    Two-Electron Energy =                 692.9192434581166253
    Total Energy =                      -1394.3134296428618200

  UHF NO Occupations:
  HONO-2 :   20 Ap 1.9974861
  HONO-1 :    5App 1.9869029
  HONO-0 :    6App 1.0000000
  LUNO+0 :    7App 0.0130971
  LUNO+1 :   21 Ap 0.0025139
  LUNO+2 :   22 Ap 0.0022668
  LUNO+3 :   23 Ap 0.0003117

Computation Completed

Properties will be evaluated at   0.000000,   0.000000,   0.000000 [a0]

Properties computed using the SCF density matrix

  Nuclear Dipole Moment: [e a0]
     X:    -1.8496      Y:    -0.0000      Z:     0.0000

  Electronic Dipole Moment: [e a0]
     X:     6.6360      Y:    -0.0001      Z:     0.0000

  Dipole Moment: [e a0]
     X:     4.7864      Y:    -0.0001      Z:     0.0000     Total:     4.7864

  Dipole Moment: [D]
     X:    12.1658      Y:    -0.0003      Z:     0.0000     Total:    12.1658

*** tstop() called on c5-8.compute.lan at Fri Mar  5 17:59:54 2021
Module time:
	user time   =     225.96 seconds =       3.77 minutes
	system time =       1.81 seconds =       0.03 minutes
	total time  =         61 seconds =       1.02 minutes
Total time:
	user time   =     225.96 seconds =       3.77 minutes
	system time =       1.81 seconds =       0.03 minutes
	total time  =         61 seconds =       1.02 minutes
 MINTS: Wrapper to libmints.
   by Justin Turney

   Calculation information:
      Number of threads:                12
      Number of atoms:                   3
      Number of AO shells:              53
      Number of SO shells:              53
      Number of primitives:            287
      Number of atomic orbitals:       199
      Number of basis functions:       169

      Number of irreps:                  2
      Integral cutoff                 0.00e+00
      Number of functions per irrep: [ 111   58 ]

 OEINTS: Overlap, kinetic, potential, dipole, and quadrupole integrals
         stored in file 35.

      Computing two-electron integrals...done
      Computed 51031040 non-zero two-electron integrals.
        Stored in file 33.

*** tstart() called on c5-8.compute.lan
*** at Fri Mar  5 18:01:36 2021

	Wfn Parameters:
	--------------------
	Wavefunction         = CCSD_T
	Number of irreps     = 2
	Number of MOs        = 169
	Number of active MOs = 150
	AO-Basis             = NONE
	Semicanonical        = false
	Reference            = UHF
	Print Level          = 1

	IRREP	# MOs	# FZDC	# DOCC	# SOCC	# VIRT	# FZVR
	-----	-----	------	------	------	------	------
	 Ap	   111	    15	    5	    0	    91	    0
	 App	   58	    4	    1	    1	    52	    0
	Transforming integrals...
	IWL integrals will be deleted.
	(OO|OO)...
	Presorting SO-basis two-electron integrals.
	Sorting File: SO Ints (nn|nn) nbuckets = 1
	Transforming the one-electron integrals and constructing Fock matrices
	Starting AA/AB first half-transformation.
	Sorting AA/AB half-transformed integrals.
	Starting BB first half-transformation.
	Sorting BB half-transformed integrals.
	First half integral transformation complete.
	Starting AA second half-transformation.
	Starting AB second half-transformation.
	Starting BB second half-transformation.
	Two-electron integral transformation complete.
	(OO|OV)...
	Starting AA second half-transformation.
	Starting AB second half-transformation.
	Starting BB second half-transformation.
	Two-electron integral transformation complete.
	(OO|VV)...
	Starting AA second half-transformation.
	Starting AB second half-transformation.
	Starting BB second half-transformation.
	Two-electron integral transformation complete.
	(OV|OO)...
	Starting AA/AB first half-transformation.
	Sorting AA/AB half-transformed integrals.
	Starting BB first half-transformation.
	Sorting BB half-transformed integrals.
	First half integral transformation complete.
	Starting AA second half-transformation.
	Starting AB second half-transformation.
	Starting BB second half-transformation.
	Two-electron integral transformation complete.
	(OV|OV)...
	Starting AA second half-transformation.
	Starting AB second half-transformation.
	Starting BB second half-transformation.
	Two-electron integral transformation complete.
	(OV|VV)...
	Starting AA second half-transformation.
	Starting AB second half-transformation.
	Starting BB second half-transformation.
	Two-electron integral transformation complete.
	(VV|OO)...
	Starting AA/AB first half-transformation.
	Sorting AA/AB half-transformed integrals.
	Starting BB first half-transformation.
	Sorting BB half-transformed integrals.
	First half integral transformation complete.
	Starting AA second half-transformation.
	Starting AB second half-transformation.
	Starting BB second half-transformation.
	Two-electron integral transformation complete.
	(VV|OV)...
	Starting AA second half-transformation.
	Starting AB second half-transformation.
	Starting BB second half-transformation.
	Two-electron integral transformation complete.
	(VV|VV)...
	Starting AA second half-transformation.
	Starting AB second half-transformation.
	Starting BB second half-transformation.
	Two-electron integral transformation complete.
	Frozen core energy     =  -1525.21378516615823

	Size of irrep 0 of <AB|CD> integrals:     29.387 (MW) /    235.098 (MB)
	Size of irrep 1 of <AB|CD> integrals:     22.392 (MW) /    179.135 (MB)
	Total:                                    51.779 (MW) /    414.233 (MB)

	Size of irrep 0 of <ab|cd> integrals:     29.954 (MW) /    239.630 (MB)
	Size of irrep 1 of <ab|cd> integrals:     23.261 (MW) /    186.091 (MB)
	Total:                                    53.215 (MW) /    425.720 (MB)

	Size of irrep 0 of <Ab|Cd> integrals:    121.815 (MW) /    974.523 (MB)
	Size of irrep 1 of <Ab|Cd> integrals:     91.298 (MW) /    730.384 (MB)
	Total:                                   213.113 (MW) /   1704.907 (MB)

	Size of irrep 0 of <IA|BC> integrals:      6.141 (MW) /     49.125 (MB)
	Size of irrep 1 of <IA|BC> integrals:      4.183 (MW) /     33.465 (MB)
	Total:                                    10.324 (MW) /     82.590 (MB)

	Size of irrep 0 of <ia|bc> integrals:      5.634 (MW) /     45.070 (MB)
	Size of irrep 1 of <ia|bc> integrals:      3.434 (MW) /     27.472 (MB)
	Total:                                     9.068 (MW) /     72.542 (MB)

	Size of irrep 0 of <Ia|Bc> integrals:      6.192 (MW) /     49.534 (MB)
	Size of irrep 1 of <Ia|Bc> integrals:      4.271 (MW) /     34.169 (MB)
	Total:                                    10.463 (MW) /     83.703 (MB)

	Size of irrep 0 of <iA|bC> integrals:      5.596 (MW) /     44.766 (MB)
	Size of irrep 1 of <iA|bC> integrals:      3.354 (MW) /     26.830 (MB)
	Total:                                     8.950 (MW) /     71.597 (MB)

	Size of irrep 0 of tIjAb amplitudes:       0.298 (MW) /      2.384 (MB)
	Size of irrep 1 of tIjAb amplitudes:       0.143 (MW) /      1.147 (MB)
	Total:                                     0.441 (MW) /      3.531 (MB)

	Nuclear Rep. energy          =    162.01605797388456
	SCF energy                   =  -1394.31342964286159
	One-electron energy          =    -55.87511587691083
	Two-electron (AA) energy     =      6.08226059074913
	Two-electron (BB) energy     =      4.34717341441455
	Two-electron (AB) energy     =     14.32997942113208
	Two-electron energy          =     24.75941342629575
	Reference energy             =  -1394.31342964288888

*** tstop() called on c5-8.compute.lan at Fri Mar  5 18:03:37 2021
Module time:
	user time   =     177.55 seconds =       2.96 minutes
	system time =      32.13 seconds =       0.54 minutes
	total time  =        121 seconds =       2.02 minutes
Total time:
	user time   =     508.36 seconds =       8.47 minutes
	system time =      35.42 seconds =       0.59 minutes
	total time  =        284 seconds =       4.73 minutes
            **************************
            *                        *
            *        CCENERGY        *
            *                        *
            **************************

    Nuclear Rep. energy (wfn)     =  162.016057973884557
    SCF energy          (wfn)     = -1394.313429642861593
    Reference energy    (file100) = -1394.313429642888877

    Input parameters:
    -----------------
    Wave function   =     CCSD_T
    Reference wfn   =     UHF
    Brueckner       =     No
    Memory (Mbytes) =     46000.0
    Maxiter         =     50
    R_Convergence   =     1.0e-10
    E_Convergence   =     1.0e-10
    Restart         =     Yes
    DIIS            =     Yes
    AO Basis        =     NONE
    ABCD            =     NEW
    Cache Level     =     2
    Cache Type      =     LRU
    Print Level     =     1
    Num. of threads =     12
    # Amps to Print =     10
    Print MP2 Amps? =     No
    Analyze T2 Amps =     No
    Print Pair Ener =     No
    Local CC        =     No
    SCS-MP2         =     False
    SCSN-MP2        =     False
    SCS-CCSD        =     False

MP2 correlation energy -0.3450752179854658
                Solving CC Amplitude Equations
                ------------------------------
  Iter             Energy              RMS        T1Diag      D1Diag    New D1Diag    D2Diag
  ----     ---------------------    ---------   ----------  ----------  ----------   --------
     0        -0.345075217985466    0.000e+00    0.000000    0.000000    0.000000    0.000000
     1        -0.358643560125426    8.246e-02    0.015920    0.000000    0.000000    0.000000
     2        -0.369305954266376    2.599e-02    0.018544    0.000000    0.000000    0.000000
     3        -0.371493674952119    1.235e-02    0.022081    0.000000    0.000000    0.000000
     4        -0.371378213762973    3.434e-03    0.023159    0.000000    0.000000    0.000000
     5        -0.371343329583814    1.414e-03    0.023441    0.000000    0.000000    0.000000
     6        -0.371336948156130    6.115e-04    0.023528    0.000000    0.000000    0.000000
     7        -0.371333687390505    3.088e-04    0.023556    0.000000    0.000000    0.000000
     8        -0.371334820634175    1.660e-04    0.023560    0.000000    0.000000    0.000000
     9        -0.371338474497694    9.468e-05    0.023562    0.000000    0.000000    0.000000
    10        -0.371337052138067    5.125e-05    0.023563    0.000000    0.000000    0.000000
    11        -0.371336876263603    2.255e-05    0.023563    0.000000    0.000000    0.000000
    12        -0.371336501778550    1.096e-05    0.023564    0.000000    0.000000    0.000000
    13        -0.371336320477261    5.458e-06    0.023564    0.000000    0.000000    0.000000
    14        -0.371336315835789    2.988e-06    0.023563    0.000000    0.000000    0.000000
    15        -0.371336320100456    1.870e-06    0.023563    0.000000    0.000000    0.000000
    16        -0.371336320086926    1.050e-06    0.023563    0.000000    0.000000    0.000000

      * MP2 total energy                      = -1394.658504860874245
      * CCSD total energy                     = -1394.684765967677777
      * CCSD(T) total energy                     = -1394.706862739889175
*** Psi4 exiting successfully. Buy a developer a beer!
