                               Psi4 1.4a2.dev191

  ==> Input File <==

--------------------------------------------------------------------------
memory 10 GB

molecule  {
-2 1
S
S 1 R1
S 1 R2 2 A1
R1 = 1.5
R2 = 1.5
A1 = 120.0
}

set {
reference uks
basis aug-cc-pvtz
}

optimize('wb97x-d')
--------------------------------------------------------------------------

    Molecular point group: c2v
  Charge       = -2
  Multiplicity = 1
  Basis Set: AUG-CC-PVTZ
    Blend: AUG-CC-PVTZ
  Basis Set: (AUG-CC-PVTZ AUX)
    Blend: AUG-CC-PVTZ-JKFIT
  @DF-UKS Final Energy: -1194.03172855439425
    Total Energy =                      -1194.0317285543942489
    Molecular point group: c2v
  Basis Set: AUG-CC-PVTZ
    Blend: AUG-CC-PVTZ
  Basis Set: (AUG-CC-PVTZ AUX)
    Blend: AUG-CC-PVTZ-JKFIT
  Basis Set: AUG-CC-PVTZ
    Blend: AUG-CC-PVTZ
  Basis Set: (AUG-CC-PVTZ AUX)
    Blend: AUG-CC-PVTZ-JKFIT
  @DF-UKS Final Energy: -1194.25555688432632
    Total Energy =                      -1194.2555568843260971
  Basis Set: AUG-CC-PVTZ
    Blend: AUG-CC-PVTZ
  Basis Set: (AUG-CC-PVTZ AUX)
    Blend: AUG-CC-PVTZ-JKFIT
  Basis Set: AUG-CC-PVTZ
    Blend: AUG-CC-PVTZ
  @DF-UKS Final Energy: -1194.45360739406988
    Total Energy =                      -1194.4536073940701044
  @DF-UKS Final Energy: -1194.52214173393304
    Total Energy =                      -1194.5221417339325853
  @DF-UKS Final Energy: -1194.55604833046095
    Total Energy =                      -1194.5560483304607260
  @DF-UKS Final Energy: -1194.56885281426185
    Total Energy =                      -1194.5688528142620726
  @DF-UKS Final Energy: -1194.57648442574896
    Total Energy =                      -1194.5764844257489585
  @DF-UKS Final Energy: -1194.58032937192161
    Total Energy =                      -1194.5803293719218345
  @DF-UKS Final Energy: -1194.58100376614175
    Total Energy =                      -1194.5810037661412935
  @DF-UKS Final Energy: -1194.58105755597671
    Total Energy =                      -1194.5810575559767130
  Basis Set: (AUG-CC-PVTZ AUX)
    Blend: AUG-CC-PVTZ-JKFIT
  Basis Set: AUG-CC-PVTZ
    Blend: AUG-CC-PVTZ
  Basis Set: (AUG-CC-PVTZ AUX)
    Blend: AUG-CC-PVTZ-JKFIT
  @DF-UKS Final Energy: -1194.58106874128089
    Total Energy =                      -1194.5810687412804327
  Basis Set: AUG-CC-PVTZ
    Blend: AUG-CC-PVTZ
  Basis Set: (AUG-CC-PVTZ AUX)
    Blend: AUG-CC-PVTZ-JKFIT
  Charge       = -2
  Multiplicity = 1
  Basis Set: AUG-CC-PVTZ
    Blend: AUG-CC-PVTZ
  Basis Set: (AUG-CC-PVTZ AUX)
    Blend: AUG-CC-PVTZ-JKFIT

    Orbital Energies [Eh]
    ---------------------

    Alpha Occupied:

       1A1   -88.728968     1B2   -88.671809     2A1   -88.671807
       3A1    -7.731670     2B2    -7.678239     4A1    -7.678234
       3B2    -5.682117     5A1    -5.678612     1B1    -5.671630
       6A1    -5.629491     4B2    -5.629491     7A1    -5.621399
       5B2    -5.621398     2B1    -5.620626     1A2    -5.620626
       8A1    -0.511777     6B2    -0.399774     9A1    -0.294714
       7B2    -0.088464    10A1    -0.066615     3B1    -0.050447
       2A2     0.036017    11A1     0.043139     8B2     0.049404
       4B1     0.098735

    Alpha Virtual:

       9B2     0.273869    12A1     0.278578    13A1     0.321787
      14A1     0.344656     5B1     0.345780    10B2     0.346926
       3A2     0.354109     6B1     0.363740    11B2     0.364384
      15A1     0.386031    16A1     0.406335    12B2     0.415309
      17A1     0.479186    13B2     0.486925     7B1     0.529756
       4A2     0.552080    18A1     0.553059    14B2     0.586134
      19A1     0.592052    15B2     0.596255     8B1     0.610021
      20A1     0.614196     5A2     0.625489     9B1     0.655226
      21A1     0.660890    16B2     0.662341    17B2     0.684139
       6A2     0.700815    22A1     0.728314    10B1     0.803826
      23A1     0.828736     7A2     0.880552    24A1     0.880579
      18B2     0.895992    25A1     0.896485    19B2     0.911146
       8A2     0.912767    11B1     0.918311    26A1     0.927376
      12B1     0.933097    20B2     0.939893    27A1     0.968323
      13B1     0.995338    21B2     0.996256    28A1     1.002342
       9A2     1.017958    22B2     1.022372    29A1     1.032230
      23B2     1.045039    14B1     1.061881    30A1     1.103112
      15B1     1.106378    10A2     1.106934    31A1     1.151611
      24B2     1.156639    16B1     1.160187    11A2     1.162958
      32A1     1.176825    25B2     1.201117    33A1     1.223305
      26B2     1.296262    12A2     1.324529    17B1     1.344794
      34A1     1.376500    27B2     1.391765    13A2     1.393683
      35A1     1.472008    18B1     1.480835    28B2     1.505510
      29B2     1.522159    36A1     1.552862    19B1     1.565537
      14A2     1.573076    37A1     1.660011    30B2     1.661404
      31B2     1.762259    38A1     1.882619    39A1     2.197006
      20B1     2.207784    15A2     2.219554    32B2     2.236188
      40A1     2.258727    16A2     2.263536    21B1     2.271096
      33B2     2.282472    41A1     2.283306    42A1     2.350297
      22B1     2.356100    34B2     2.371587    43A1     2.408865
      17A2     2.409714    23B1     2.410497    35B2     2.413722
      18A2     2.428028    36B2     2.443583    44A1     2.470852
      24B1     2.471639    25B1     2.489591    45A1     2.522287
      37B2     2.530485    26B1     2.553207    46A1     2.559379
      19A2     2.565803    38B2     2.576306    20A2     2.640015
      47A1     2.644218    21A2     2.645379    48A1     2.652118
      27B1     2.652527    39B2     2.656997    28B1     2.701456
      40B2     2.741034    49A1     2.754176    41B2     2.794495
      50A1     2.820157    42B2     2.825442    51A1     2.915091
      22A2     2.929412    29B1     2.930142    43B2     3.022558
      52A1     3.958852    44B2     3.986862    53A1     4.951188
      45B2     5.501825    54A1     6.018701

    Beta Occupied:

       1A1   -88.728968     1B2   -88.671809     2A1   -88.671807
       3A1    -7.731670     2B2    -7.678239     4A1    -7.678234
       3B2    -5.682117     5A1    -5.678612     1B1    -5.671630
       6A1    -5.629491     4B2    -5.629491     7A1    -5.621399
       5B2    -5.621398     2B1    -5.620626     1A2    -5.620626
       8A1    -0.511777     6B2    -0.399774     9A1    -0.294714
       7B2    -0.088464    10A1    -0.066615     3B1    -0.050447
       2A2     0.036017    11A1     0.043139     8B2     0.049404
       4B1     0.098735

    Beta Virtual:

       9B2     0.273869    12A1     0.278578    13A1     0.321787
      14A1     0.344656     5B1     0.345780    10B2     0.346926
       3A2     0.354109     6B1     0.363740    11B2     0.364384
      15A1     0.386031    16A1     0.406335    12B2     0.415309
      17A1     0.479186    13B2     0.486925     7B1     0.529756
       4A2     0.552080    18A1     0.553059    14B2     0.586134
      19A1     0.592052    15B2     0.596255     8B1     0.610021
      20A1     0.614196     5A2     0.625489     9B1     0.655226
      21A1     0.660890    16B2     0.662341    17B2     0.684139
       6A2     0.700815    22A1     0.728314    10B1     0.803826
      23A1     0.828736     7A2     0.880552    24A1     0.880579
      18B2     0.895992    25A1     0.896485    19B2     0.911146
       8A2     0.912767    11B1     0.918311    26A1     0.927376
      12B1     0.933097    20B2     0.939893    27A1     0.968323
      13B1     0.995338    21B2     0.996256    28A1     1.002342
       9A2     1.017958    22B2     1.022372    29A1     1.032230
      23B2     1.045039    14B1     1.061881    30A1     1.103112
      15B1     1.106378    10A2     1.106934    31A1     1.151611
      24B2     1.156639    16B1     1.160187    11A2     1.162958
      32A1     1.176825    25B2     1.201117    33A1     1.223305
      26B2     1.296262    12A2     1.324529    17B1     1.344794
      34A1     1.376500    27B2     1.391765    13A2     1.393683
      35A1     1.472008    18B1     1.480835    28B2     1.505510
      29B2     1.522159    36A1     1.552862    19B1     1.565537
      14A2     1.573076    37A1     1.660011    30B2     1.661404
      31B2     1.762259    38A1     1.882619    39A1     2.197006
      20B1     2.207784    15A2     2.219554    32B2     2.236188
      40A1     2.258727    16A2     2.263536    21B1     2.271096
      33B2     2.282472    41A1     2.283306    42A1     2.350297
      22B1     2.356100    34B2     2.371587    43A1     2.408865
      17A2     2.409714    23B1     2.410497    35B2     2.413722
      18A2     2.428028    36B2     2.443583    44A1     2.470852
      24B1     2.471639    25B1     2.489591    45A1     2.522287
      37B2     2.530485    26B1     2.553207    46A1     2.559379
      19A2     2.565803    38B2     2.576306    20A2     2.640015
      47A1     2.644218    21A2     2.645379    48A1     2.652118
      27B1     2.652527    39B2     2.656997    28B1     2.701456
      40B2     2.741034    49A1     2.754176    41B2     2.794495
      50A1     2.820157    42B2     2.825442    51A1     2.915091
      22A2     2.929412    29B1     2.930142    43B2     3.022558
      52A1     3.958852    44B2     3.986862    53A1     4.951188
      45B2     5.501825    54A1     6.018701

    Final Occupation by Irrep:
             A1    A2    B1    B2
    DOCC [    11,    2,    4,    8 ]
    SOCC [     0,    0,    0,    0 ]

  @DF-UKS Final Energy: -1194.58106994100172

   => Energetics <=

    Nuclear Repulsion Energy =            166.8194961978646518
    One-Electron Energy =               -2001.7616868653424262
    Two-Electron Energy =                 696.7750486879567688
    DFT Exchange-Correlation Energy =     -56.4136511112271890
    Empirical Dispersion Energy =          -0.0002768502533996
    VV10 Nonlocal Energy =                  0.0000000000000000
    Total Energy =                      -1194.5810699410014877

  UHF NO Occupations:
  HONO-2 :    7 B2 2.0000000
  HONO-1 :   11 A1 2.0000000
  HONO-0 :    8 B2 2.0000000
  LUNO+0 :   12 A1 0.0000000
  LUNO+1 :    9 B2 0.0000000
  LUNO+2 :   13 A1 0.0000000
  LUNO+3 :   10 B2 0.0000000

Computation Completed

Properties will be evaluated at   0.000000,   0.000000,   0.000000 [a0]

Properties computed using the SCF density matrix

  Nuclear Dipole Moment: [e a0]
     X:     0.0000      Y:     0.0000      Z:     0.0000

  Electronic Dipole Moment: [e a0]
     X:     0.0000      Y:     0.0000      Z:    -0.7385

  Dipole Moment: [e a0]
     X:     0.0000      Y:     0.0000      Z:    -0.7385     Total:     0.7385

  Dipole Moment: [D]
     X:     0.0000      Y:     0.0000      Z:    -1.8771     Total:     1.8771

*** tstop() called on c1-4.compute.lan at Tue Feb  2 11:34:26 2021
Module time:
	user time   =      14.56 seconds =       0.24 minutes
	system time =       0.12 seconds =       0.00 minutes
	total time  =         15 seconds =       0.25 minutes
Total time:
	user time   =     339.46 seconds =       5.66 minutes
	system time =       4.88 seconds =       0.08 minutes
	total time  =        345 seconds =       5.75 minutes

*** tstart() called on c1-4.compute.lan
*** at Tue Feb  2 11:34:26 2021

         ------------------------------------------------------------
                                   SCF GRAD
                          Rob Parrish, Justin Turney,
                       Andy Simmonett, and Alex Sokolov
         ------------------------------------------------------------

  ==> Geometry <==

    Molecular point group: c2v
    Full point group: C2v

    Geometry (in Angstrom), charge = -2, multiplicity = 1:

       Center              X                  Y                   Z               Mass
    ------------   -----------------  -----------------  -----------------  -----------------
         S            0.000000000000     0.000000000000    -0.777858373701    31.972071174400
         S            0.000000000000    -1.759638859260     0.388929186851    31.972071174400
         S            0.000000000000     1.759638859260     0.388929186851    31.972071174400

  Nuclear repulsion =  166.819496197864652

  ==> Basis Set <==

  Basis Set: AUG-CC-PVTZ
    Blend: AUG-CC-PVTZ
    Number of shells: 48
    Number of basis function: 150
    Number of Cartesian functions: 177
    Spherical Harmonics?: true
    Max angular momentum: 3

  ==> DFJKGrad: Density-Fitted SCF Gradients <==

    Gradient:                    1
    J tasked:                  Yes
    K tasked:                  Yes
    wK tasked:                 Yes
    Omega:               2.000E-01
    OpenMP threads:              1
    Integrals threads:           1
    Memory [MiB]:             7152
    Schwarz Cutoff:          0E+00
    Fitting Condition:       1E-10

   => Auxiliary Basis Set <=

  Basis Set: (AUG-CC-PVTZ AUX)
    Blend: AUG-CC-PVTZ-JKFIT
    Number of shells: 126
    Number of basis function: 438
    Number of Cartesian functions: 540
    Spherical Harmonics?: true
    Max angular momentum: 4

  ==> DFT Potential <==

   => Composite Functional: WB97X-D <=

    wB97X-D Hyb-GGA Exchange-Correlation Functional

    J.-D. Chai and M. Head-Gordon, Phys. Chem. Chem. Phys. 10, 6615 (2008)

    Deriv               =              1
    GGA                 =           TRUE
    Meta                =          FALSE

    Exchange Hybrid     =           TRUE
    MP2 Hybrid          =          FALSE

   => Exchange-Correlation Functionals <=

    1.0000   wB97D range-separated functional

   => Exact (HF) Exchange <=

    0.7780            HF,LR [omega = 0.2000]
    0.2220               HF

   => Molecular Quadrature <=

    Radial Scheme          =       TREUTLER
    Pruning Scheme         =           NONE
    Nuclear Scheme         =       TREUTLER

    BS radius alpha        =              1
    Pruning alpha          =              1
    Radial Points          =             75
    Spherical Points       =            302
    Total Points           =          65892
    Total Blocks           =            600
    Max Points             =            256
    Max Functions          =            150
    Weights Tolerance      =       1.00E-15

  -Total Gradient:
     Atom            X                  Y                   Z
    ------   -----------------  -----------------  -----------------
       1       -0.000000000000     0.000000000000    -0.000040224075
       2        0.000000000000    -0.000031040813     0.000005502541
       3       -0.000000000000     0.000031040813     0.000005502541

*** tstop() called on c1-4.compute.lan at Tue Feb  2 11:34:37 2021
Module time:
	user time   =      10.69 seconds =       0.18 minutes
	system time =       0.19 seconds =       0.00 minutes
	total time  =         11 seconds =       0.18 minutes
Total time:
	user time   =     350.15 seconds =       5.84 minutes
	system time =       5.07 seconds =       0.08 minutes
	total time  =        356 seconds =       5.93 minutes

			-----------------------------------------
			 OPTKING 2.0: for geometry optimizations
			  - R.A. King,  Bethel University
			-----------------------------------------

	Previous internal coordinate definitions found.
	---Fragment 1 Geometry and Gradient---
	 S           0.0000000000        0.0000000000       -1.4699392907
	 S           0.0000000000       -3.3252355237        0.7349696453
	 S           0.0000000000        3.3252355237        0.7349696453
	            -0.0000000000        0.0000000000       -0.0000402241
	             0.0000000000       -0.0000310408        0.0000055025
	            -0.0000000000        0.0000310408        0.0000055025

	---Fragment 1 Intrafragment Coordinates---
	 - Coordinate -           - BOHR/RAD -       - ANG/DEG -
	 R(1,2)           =         3.989839	       2.111332
	 R(1,3)           =         3.989839	       2.111332
	 R(2,3)           =         6.650471	       3.519278
	 B(1,2,3)         =         0.585518	      33.547703
	 B(1,3,2)         =         0.585518	      33.547703
	 B(2,1,3)         =         1.970557	     112.904594

	Current energy   :     -1194.5810699410

	Energy change for the previous step:
		Projected    :        -0.0000028193
		Actual       :        -0.0000011997

	Performing BFGS update.
	Previous computed or guess Hessian on step 1.
	Steps to be used in Hessian update: 11 10
	Taking RFO optimization step.
	Going to follow RFO solution 1.
	Using RFO vector 1.
	Norm of target step-size    0.00066
	Projected energy change by RFO approximation:        -0.0000000249

	Back-transformation to cartesian coordinates...
	Successfully converged to displaced geometry.

	--- Internal Coordinate Step in ANG or DEG, aJ/ANG or AJ/DEG ---
	 ---------------------------------------------------------------------------
	   Coordinate                Previous        Force       Change         New
	   ----------                --------       ------       ------       ------
	    1 R(1,2)          =      2.111332    -0.000181    -0.000122     2.111209
	    2 R(1,3)          =      2.111332    -0.000181    -0.000122     2.111209
	    3 R(2,3)          =      3.519278    -0.000122    -0.000297     3.518981
	    4 B(1,2,3)        =     33.547703    -0.000000     0.002285    33.549987
	    5 B(1,3,2)        =     33.547703    -0.000000     0.002285    33.549987
	    6 B(2,1,3)        =    112.904594     0.000001    -0.004569   112.900025
	 ---------------------------------------------------------------------------
	Successfully symmetrized geometry.

  ==> Convergence Check <==

  Measures of convergence in internal coordinates in au.
  Criteria marked as inactive (o), active & met (*), and active & unmet ( ).
  ---------------------------------------------------------------------------------------------
   Step     Total Energy     Delta E     MAX Force     RMS Force      MAX Disp      RMS Disp
  ---------------------------------------------------------------------------------------------
    Convergence Criteria    1.00e-06 *    3.00e-04 *             o    1.20e-03 *             o
  ---------------------------------------------------------------------------------------------
     12   -1194.58106994   -1.20e-06      2.20e-05 *    1.49e-05 o    5.62e-04 *    2.68e-04 o  ~
  ---------------------------------------------------------------------------------------------

  **** Optimization is complete! (in 12 steps) ****

  ==> Optimization Summary <==

  Measures of convergence in internal coordinates in au.
  --------------------------------------------------------------------------------------------------------------- ~
   Step         Total Energy             Delta E       MAX Force       RMS Force        MAX Disp        RMS Disp  ~
  --------------------------------------------------------------------------------------------------------------- ~
      1   -1194.031728554394  -1194.031728554394      0.46937188      0.34726091      0.19271725      0.13457764  ~
      2   -1194.255556884326     -0.223828329932      0.32294442      0.23067717      0.28874359      0.19915403  ~
      3   -1194.453607394070     -0.198050509744      0.16506433      0.11118499      0.21147217      0.13988230  ~
      4   -1194.522141733933     -0.068534339863      0.08439647      0.05654760      0.22746597      0.14537473  ~
      5   -1194.556048330461     -0.033906596528      0.03751583      0.02537689      0.24139870      0.11785822  ~
      6   -1194.568852814262     -0.012804483801      0.02547914      0.01367195      0.28731601      0.13171629  ~
      7   -1194.576484425749     -0.007631611487      0.01496293      0.00675827      0.32379848      0.14530981  ~
      8   -1194.580329371922     -0.003844946173      0.00540503      0.00300035      0.16977589      0.07622739  ~
      9   -1194.581003766142     -0.000674394220      0.00192151      0.00150555      0.03620755      0.01699102  ~
     10   -1194.581057555977     -0.000053789835      0.00110312      0.00077551      0.00767222      0.00520903  ~
     11   -1194.581068741281     -0.000011185304      0.00033990      0.00022881      0.00243572      0.00163729  ~
     12   -1194.581069941002     -0.000001199721      0.00002197      0.00001489      0.00056151      0.00026830  ~
  --------------------------------------------------------------------------------------------------------------- ~

	Writing optimization data to binary file.
	Final energy is  -1194.5810699410017
	Final (previous) structure:
	Cartesian Geometry (in Angstrom)
	    S     0.0000000000   0.0000000000  -0.7778583706
	    S     0.0000000000  -1.7596388523   0.3889291853
	    S     0.0000000000   1.7596388523   0.3889291853
	Saving final (previous) structure.
			--------------------------
			 OPTKING Finished Execution
			--------------------------

    Final optimized geometry and variables:
    Molecular point group: c2v
    Full point group: C2v

    Geometry (in Angstrom), charge = -2, multiplicity = 1:

    S
    S             1          R1
    S             1          R2      2          A1

*** Psi4 exiting successfully. Buy a developer a beer!
