                               Psi4 1.4a2.dev191

  ==> Input File <==

--------------------------------------------------------------------------
memory 10 GB

molecule  {
-1 4
S
S 1 r1
r1 = 2.0
}

set {
reference uks
basis aug-cc-pvtz
g_convergence gau_verytight
dft_spherical_points 590
dft_radial_points 99
}

optimize('wb97m-v')
frequencies('wb97m-v')

--------------------------------------------------------------------------

    Molecular point group: d2h
  Charge       = -1
  Multiplicity = 4
  Basis Set: AUG-CC-PVTZ
    Blend: AUG-CC-PVTZ
  Basis Set: (AUG-CC-PVTZ AUX)
    Blend: AUG-CC-PVTZ-JKFIT
  @DF-UKS Final Energy:  -796.32699556263447
    Total Energy =                       -796.3269955626345791
    Molecular point group: d2h
  Basis Set: AUG-CC-PVTZ
    Blend: AUG-CC-PVTZ
  Basis Set: (AUG-CC-PVTZ AUX)
    Blend: AUG-CC-PVTZ-JKFIT
  @DF-UKS Final Energy:  -796.32702593234990
    Total Energy =                       -796.3270259323498976
  Basis Set: AUG-CC-PVTZ
    Blend: AUG-CC-PVTZ
  Basis Set: (AUG-CC-PVTZ AUX)
    Blend: AUG-CC-PVTZ-JKFIT
  @DF-UKS Final Energy:  -796.32696505501303
    Total Energy =                       -796.3269650550129199
  Basis Set: AUG-CC-PVTZ
    Blend: AUG-CC-PVTZ
  Basis Set: (AUG-CC-PVTZ AUX)
    Blend: AUG-CC-PVTZ-JKFIT
  @DF-UKS Final Energy:  -796.32851142507582
    Total Energy =                       -796.3285114250758170
  @DF-UKS Final Energy:  -796.32853550800360
    Total Energy =                       -796.3285355080035970
  @DF-UKS Final Energy:  -796.32848724884025
    Total Energy =                       -796.3284872488402470
  @DF-UKS Final Energy:  -796.33203229836613
    Total Energy =                       -796.3320322983661299
  @DF-UKS Final Energy:  -796.33204337729489
    Total Energy =                       -796.3320433772948945
  @DF-UKS Final Energy:  -796.33202113953053
    Total Energy =                       -796.3320211395308661
  @DF-UKS Final Energy:  -796.33271809997905
    Total Energy =                       -796.3327180999790471
  @DF-UKS Final Energy:  -796.33271615509716
    Total Energy =                       -796.3327161550971596
  @DF-UKS Final Energy:  -796.33271994838310
    Total Energy =                       -796.3327199483831009
  @DF-UKS Final Energy:  -796.33273565660750
    Total Energy =                       -796.3327356566072694
  @DF-UKS Final Energy:  -796.33273610202514
    Total Energy =                       -796.3327361020250237
  @DF-UKS Final Energy:  -796.33273511548543
    Total Energy =                       -796.3327351154854341
  @DF-UKS Final Energy:  -796.33273692555872
    Total Energy =                       -796.3327369255588337
  @DF-UKS Final Energy:  -796.33273684867345
    Total Energy =                       -796.3327368486734485
  @DF-UKS Final Energy:  -796.33273690761496
    Total Energy =                       -796.3327369076149580
  @DF-UKS Final Energy:  -796.33273693041860
    Total Energy =                       -796.3327369304187187
  @DF-UKS Final Energy:  -796.33273688191025
    Total Energy =                       -796.3327368819100229
  @DF-UKS Final Energy:  -796.33273688333293
    Total Energy =                       -796.3327368833331548
  @DF-UKS Final Energy:  -796.33273693010597
    Total Energy =                       -796.3327369301059662
  @DF-UKS Final Energy:  -796.33273688293889
    Total Energy =                       -796.3327368829391162
  @DF-UKS Final Energy:  -796.33273688234999
    Total Energy =                       -796.3327368823499910
  **** Optimization is complete! (in 8 steps) ****
    Final optimized geometry and variables:
  @DF-UKS Final Energy:  -796.33273693010619
    Total Energy =                       -796.3327369301060799
  @DF-UKS Final Energy:  -796.33273688293889
    Total Energy =                       -796.3327368829387751
  Basis Set: AUG-CC-PVTZ
    Blend: AUG-CC-PVTZ
  Basis Set: (AUG-CC-PVTZ AUX)
    Blend: AUG-CC-PVTZ-JKFIT
  @DF-UKS Final Energy:  -796.33273688235022
    Total Energy =                       -796.3327368823502184
  Basis Set: AUG-CC-PVTZ
    Blend: AUG-CC-PVTZ
  Basis Set: (AUG-CC-PVTZ AUX)
    Blend: AUG-CC-PVTZ-JKFIT
  @DF-UKS Final Energy:  -796.33273693010642
    Total Energy =                       -796.3327369301061935
  Multiplicity = 4
  Basis Set: AUG-CC-PVTZ
    Blend: AUG-CC-PVTZ
  Basis Set: (AUG-CC-PVTZ AUX)
    Blend: AUG-CC-PVTZ-JKFIT
  @DF-UKS Final Energy:  -796.33273688293912
    Total Energy =                       -796.3327368829393436
    Molecular point group: d2h

    Geometry (in Angstrom), charge = -1, multiplicity = 4:

       Center              X                  Y                   Z               Mass
    ------------   -----------------  -----------------  -----------------  -----------------
         S            0.000000000000     0.000000000000    -1.125333841161    31.972071174400
         S            0.000000000000     0.000000000000     1.125333841161    31.972071174400

  Charge       = -1
  Multiplicity = 4
  Basis Set: AUG-CC-PVTZ
    Blend: AUG-CC-PVTZ
  Basis Set: (AUG-CC-PVTZ AUX)
    Blend: AUG-CC-PVTZ-JKFIT

    Orbital Energies [Eh]
    ---------------------

    Alpha Occupied:

       1B1u  -89.021535     1Ag   -89.021530     2Ag    -7.931047
       2B1u   -7.931033     1B2g   -5.840769     1B3g   -5.840769
       1B3u   -5.840750     1B2u   -5.840750     3Ag    -5.839263
       3B1u   -5.839188     4Ag    -0.658216     4B1u   -0.551624
       5Ag    -0.259434     2B2u   -0.218304     2B3u   -0.218304
       2B2g   -0.138665     2B3g   -0.138665     5B1u   -0.016918

    Alpha Virtual:

       6B1u    0.178479     3B3u    0.207368     3B2u    0.207368
       6Ag     0.211622     3B3g    0.224938     3B2g    0.224938
       7Ag     0.244658     7B1u    0.337141     8Ag     0.371981
       1B1g    0.371981     4B2u    0.412898     4B3u    0.412898
       9Ag     0.454287     8B1u    0.457023     1Au     0.457025
       9B1u    0.489851     4B3g    0.517182     4B2g    0.517182
       5B2u    0.645640     5B3u    0.645640    10B1u    0.733994
       5B3g    0.738612     5B2g    0.738612    10Ag     0.757385
       6B3u    0.760960     6B2u    0.760960    11Ag     0.776923
       2B1g    0.793359    12Ag     0.793361    13Ag     0.811517
       2Au     0.846350    11B1u    0.846351     6B3g    0.904828
       6B2g    0.904828     7B2u    0.910035     7B3u    0.910035
      14Ag     0.938296     3B1g    0.938301    12B1u    0.970233
       7B3g    1.019671     7B2g    1.019671     8B3u    1.151804
       8B2u    1.151804    13B1u    1.156209    14B1u    1.191404
       3Au     1.191414     8B2g    1.364961     8B3g    1.364961
      15Ag     1.377490    15B1u    1.598337     4B1g    1.956310
      16Ag     1.956312     9B2u    2.009988     9B3u    2.009988
       4Au     2.018321    16B1u    2.018326    17B1u    2.094849
       9B2g    2.175078     9B3g    2.175078    17Ag     2.239383
      10B3u    2.269971    10B2u    2.269971    11B2u    2.274894
      11B3u    2.274894    18Ag     2.294614    12B3u    2.300410
      12B2u    2.300410    19Ag     2.312723     5B1g    2.312726
      10B2g    2.341731    10B3g    2.341731    11B2g    2.387413
      11B3g    2.387413    20Ag     2.390358    18B1u    2.423246
       5Au     2.423254    19B1u    2.518567    12B3g    2.635194
      12B2g    2.635194    20B1u    3.535879    21Ag     4.390253
      21B1u    5.476934

    Beta Occupied:

       1B1u  -89.012765     1Ag   -89.012762     2Ag    -7.922087
       2B1u   -7.922013     3Ag    -5.827002     3B1u   -5.826936
       1B3u   -5.825753     1B2u   -5.825753     1B2g   -5.825749
       1B3g   -5.825749     4Ag    -0.610282     4B1u   -0.480536
       5Ag    -0.193534     2B2u   -0.146387     2B3u   -0.146387

    Beta Virtual:

       2B3g    0.124948     2B2g    0.124948     5B1u    0.155049
       6Ag     0.210242     3B2u    0.211351     3B3u    0.211351
       3B3g    0.228894     3B2g    0.228894     6B1u    0.244756
       7Ag     0.253341     7B1u    0.344683     8Ag     0.379694
       1B1g    0.379694     4B2u    0.430560     4B3u    0.430560
       8B1u    0.465526     1Au     0.465529     9Ag     0.473002
       9B1u    0.501576     4B3g    0.524761     4B2g    0.524761
       5B2u    0.662402     5B3u    0.662402     5B3g    0.750057
       5B2g    0.750057    10Ag     0.756655    10B1u    0.759846
       6B2u    0.784246     6B3u    0.784246    11Ag     0.804551
       2B1g    0.819986    12Ag     0.819988    13Ag     0.852982
       2Au     0.886118    11B1u    0.886119     7B2u    0.915740
       7B3u    0.915740     6B3g    0.942334     6B2g    0.942334
      14Ag     0.952756     3B1g    0.952760    12B1u    1.006940
       7B3g    1.028036     7B2g    1.028036    13B1u    1.169443
       8B3u    1.171459     8B2u    1.171459    14B1u    1.203428
       3Au     1.203438     8B2g    1.391977     8B3g    1.391977
      15Ag     1.416154    15B1u    1.645191    16Ag     2.018369
       4B1g    2.018371     9B2u    2.057482     9B3u    2.057482
       4Au     2.079329    16B1u    2.079330    17B1u    2.142933
       9B2g    2.224356     9B3g    2.224356    17Ag     2.268317
      10B3u    2.302141    10B2u    2.302141    18Ag     2.337839
      11B2u    2.338828    11B3u    2.338828    19Ag     2.356158
       5B1g    2.356162    12B3u    2.358850    12B2u    2.358850
      10B2g    2.398421    10B3g    2.398421    20Ag     2.434409
      11B2g    2.440852    11B3g    2.440852    18B1u    2.466300
       5Au     2.466308    19B1u    2.556810    12B3g    2.674546
      12B2g    2.674546    20B1u    3.559072    21Ag     4.424950
      21B1u    5.508997

    Final Occupation by Irrep:
             Ag   B1g   B2g   B3g    Au   B1u   B2u   B3u
    DOCC [     5,    0,    1,    1,    0,    4,    2,    2 ]
    SOCC [     0,    0,    1,    1,    0,    1,    0,    0 ]

  @DF-UKS Final Energy:  -796.33273688235033

   => Energetics <=

    Nuclear Repulsion Energy =             60.1907456154399298
    One-Electron Energy =               -1226.7215643815648036
    Two-Electron Energy =                 409.6537038542638811
    DFT Exchange-Correlation Energy =     -39.5920707710515245
    Empirical Dispersion Energy =           0.0000000000000000
    VV10 Nonlocal Energy =                  0.1364488005623122
    Total Energy =                       -796.3327368823502184

  UHF NO Occupations:
  HONO-2 :    2B3g 1.0000000
  HONO-1 :    5B1u 1.0000000
  HONO-0 :    2B2g 1.0000000
  LUNO+0 :    3B2u 0.0038102
  LUNO+1 :    3B3u 0.0038102
  LUNO+2 :    6 Ag 0.0007067
  LUNO+3 :    6B1u 0.0000879

Computation Completed

Properties will be evaluated at   0.000000,   0.000000,   0.000000 [a0]

Properties computed using the SCF density matrix

  Nuclear Dipole Moment: [e a0]
     X:     0.0000      Y:     0.0000      Z:     0.0000

  Electronic Dipole Moment: [e a0]
     X:     0.0000      Y:     0.0000      Z:     0.0000

  Dipole Moment: [e a0]
     X:     0.0000      Y:     0.0000      Z:     0.0000     Total:     0.0000

  Dipole Moment: [D]
     X:     0.0000      Y:     0.0000      Z:     0.0000     Total:     0.0000

*** tstop() called on c4-11.compute.lan at Tue Feb  2 12:20:47 2021
Module time:
	user time   =      29.25 seconds =       0.49 minutes
	system time =       0.15 seconds =       0.00 minutes
	total time  =         30 seconds =       0.50 minutes
Total time:
	user time   =     611.03 seconds =      10.18 minutes
	system time =       4.61 seconds =       0.08 minutes
	total time  =        618 seconds =      10.30 minutes

         ----------------------------------------------------------
                                   FINDIF
                     R. A. King and Jonathon Misiewicz
         ---------------------------------------------------------

  Computing second-derivative from energies using projected,
  symmetry-adapted, cartesian coordinates.

  3 energies passed in, including the reference geometry.
    Using 3-point formula.
    Energy without displacement: -796.3327369301
    Check energies below for precision!
    0: -1 :      -796.3327368829
    0: 1  :      -796.3327368824

-------------------------------------------------------------

  ==> Harmonic Vibrational Analysis <==

  non-mass-weighted Hessian:       Symmetric? True   Hermitian? True   Lin Dep Dim?  5 (0)
  projection of translations (True) and rotations (True) removed 5 degrees of freedom (5)
  total projector:                 Symmetric? True   Hermitian? True   Lin Dep Dim?  5 (5)
  mass-weighted Hessian:           Symmetric? True   Hermitian? True   Lin Dep Dim?  5 (0)
  pre-proj  low-frequency mode:    0.0000  [cm^-1]
  pre-proj  low-frequency mode:    0.0000  [cm^-1]
  pre-proj  low-frequency mode:    0.0000  [cm^-1]
  pre-proj  low-frequency mode:    0.0000  [cm^-1]
  pre-proj  low-frequency mode:    0.0000  [cm^-1]
  pre-proj  all modes:['0.0000' '0.0000' '0.0000' '0.0000' '0.0000' '316.7533']
  projected mass-weighted Hessian: Symmetric? True   Hermitian? True   Lin Dep Dim?  5 (5)
  post-proj low-frequency mode:    0.0000  [cm^-1] (TR)
  post-proj low-frequency mode:    0.0000  [cm^-1] (TR)
  post-proj low-frequency mode:    0.0000  [cm^-1] (TR)
  post-proj low-frequency mode:    0.0000  [cm^-1] (TR)
  post-proj low-frequency mode:    0.0000  [cm^-1] (TR)
  post-proj  all modes:['0.0000' '0.0000' '0.0000' '0.0000' '0.0000' '316.7533']

  Vibration                       6
  Freq [cm^-1]                 316.7533
  Irrep                           Ag
  Reduced mass [u]             31.9721
  Force const [mDyne/A]         1.8900
  Turning point v=0 [a0]        0.1090
  RMS dev v=0 [a0 u^1/2]        0.4359
  Char temp [K]                455.7375
  ----------------------------------------------------------------------------------
      1   S                0.00  0.00  0.71
      2   S                0.00  0.00 -0.71

  ==> Thermochemistry Components <==

  Entropy, S
    Electronic S            2.755 [cal/(mol K)]       11.526 [J/(mol K)]       0.00439013 [mEh/K] (multiplicity = 4)
    Translational S        38.385 [cal/(mol K)]      160.603 [J/(mol K)]       0.06117054 [mEh/K] (mol. weight = 63.9441 [u], P = 101325.00 [Pa])
    Rotational S           14.329 [cal/(mol K)]       59.952 [J/(mol K)]       0.02283464 [mEh/K] (symmetry no. = 2)
    Vibrational S           1.327 [cal/(mol K)]        5.551 [J/(mol K)]       0.00211441 [mEh/K]
  Total S                  56.796 [cal/(mol K)]      237.633 [J/(mol K)]       0.09050971 [mEh/K]
  Correction S              0.000 [cal/(mol K)]        0.000 [J/(mol K)]       0.00000000 [mEh/K]

  Constant volume heat capacity, Cv
    Electronic Cv           0.000 [cal/(mol K)]        0.000 [J/(mol K)]       0.00000000 [mEh/K]
    Translational Cv        2.981 [cal/(mol K)]       12.472 [J/(mol K)]       0.00475022 [mEh/K]
    Rotational Cv           1.987 [cal/(mol K)]        8.314 [J/(mol K)]       0.00316681 [mEh/K]
    Vibrational Cv          1.642 [cal/(mol K)]        6.869 [J/(mol K)]       0.00261608 [mEh/K]
  Total Cv                  6.610 [cal/(mol K)]       27.655 [J/(mol K)]       0.01053310 [mEh/K]
  Correction Cv             0.000 [cal/(mol K)]        0.000 [J/(mol K)]       0.00000000 [mEh/K]

  Constant pressure heat capacity, Cp
    Electronic Cp           0.000 [cal/(mol K)]        0.000 [J/(mol K)]       0.00000000 [mEh/K]
    Translational Cp        4.968 [cal/(mol K)]       20.786 [J/(mol K)]       0.00791703 [mEh/K]
    Rotational Cp           1.987 [cal/(mol K)]        8.314 [J/(mol K)]       0.00316681 [mEh/K]
    Vibrational Cp          1.642 [cal/(mol K)]        6.869 [J/(mol K)]       0.00261608 [mEh/K]
  Total Cp                  8.597 [cal/(mol K)]       35.969 [J/(mol K)]       0.01369991 [mEh/K]
  Correction Cp             0.000 [cal/(mol K)]        0.000 [J/(mol K)]       0.00000000 [mEh/K]

  ==> Thermochemistry Energy Analysis <==

  Raw electronic energy, E0
  Total E0, Electronic energy at well bottom at 0 [K]                 -796.33273693 [Eh]

  Zero-point energy, ZPE_vib = Sum_i nu_i / 2
    Electronic ZPE          0.000 [kcal/mol]        0.000 [kJ/mol]       0.00000000 [Eh]
    Translational ZPE       0.000 [kcal/mol]        0.000 [kJ/mol]       0.00000000 [Eh]
    Rotational ZPE          0.000 [kcal/mol]        0.000 [kJ/mol]       0.00000000 [Eh]
    Vibrational ZPE         0.453 [kcal/mol]        1.895 [kJ/mol]       0.00072162 [Eh]         158.377 [cm^-1]
  Correction ZPE            0.453 [kcal/mol]        1.895 [kJ/mol]       0.00072162 [Eh]         158.377 [cm^-1]
  Total ZPE, Electronic energy at 0 [K]                               -796.33201531 [Eh]

  Thermal Energy, E (includes ZPE)
    Electronic E            0.000 [kcal/mol]        0.000 [kJ/mol]       0.00000000 [Eh]
    Translational E         0.889 [kcal/mol]        3.718 [kJ/mol]       0.00141628 [Eh]
    Rotational E            0.592 [kcal/mol]        2.479 [kJ/mol]       0.00094418 [Eh]
    Vibrational E           0.704 [kcal/mol]        2.944 [kJ/mol]       0.00112124 [Eh]
  Correction E              2.185 [kcal/mol]        9.141 [kJ/mol]       0.00348170 [Eh]
  Total E, Electronic energy at  298.15 [K]                           -796.32925523 [Eh]

  Enthalpy, H_trans = E_trans + k_B * T
    Electronic H            0.000 [kcal/mol]        0.000 [kJ/mol]       0.00000000 [Eh]
    Translational H         1.481 [kcal/mol]        6.197 [kJ/mol]       0.00236046 [Eh]
    Rotational H            0.592 [kcal/mol]        2.479 [kJ/mol]       0.00094418 [Eh]
    Vibrational H           0.704 [kcal/mol]        2.944 [kJ/mol]       0.00112124 [Eh]
  Correction H              2.777 [kcal/mol]       11.620 [kJ/mol]       0.00442589 [Eh]
  Total H, Enthalpy at  298.15 [K]                                    -796.32831104 [Eh]

  Gibbs free energy, G = H - T * S
    Electronic G           -0.821 [kcal/mol]       -3.437 [kJ/mol]      -0.00130892 [Eh]
    Translational G        -9.963 [kcal/mol]      -41.686 [kJ/mol]      -0.01587754 [Eh]
    Rotational G           -3.680 [kcal/mol]      -15.396 [kJ/mol]      -0.00586396 [Eh]
    Vibrational G           0.308 [kcal/mol]        1.289 [kJ/mol]       0.00049083 [Eh]
  Correction G            -14.156 [kcal/mol]      -59.230 [kJ/mol]      -0.02255959 [Eh]
  Total G, Free enthalpy at  298.15 [K]                               -796.35529652 [Eh]

    Psi4 stopped on: Tuesday, 02 February 2021 12:20PM
    Psi4 wall time for execution: 0:10:18.41

*** Psi4 exiting successfully. Buy a developer a beer!
