                               Psi4 1.3.2 release

  ==> Input File <==

--------------------------------------------------------------------------
memory 46 GB

basis jerome {
assign pot
assign S aug-cc-pV(T+d)Z

[pot]
spherical
****
 K  0
 S 23 1.00
    2.709796E+07     4.136110E-07
    3.592856E+06     3.860330E-06
    7.222638E+05     2.394640E-05
    1.833976E+05     1.157540E-04
    5.464812E+04     4.697010E-04
    1.830913E+04     1.673720E-03
    6.712501E+03     5.370450E-03
    2.643719E+03     1.572510E-02
    1.103835E+03     4.193360E-02
    4.836777E+02     9.987620E-02
    2.206245E+02     2.019680E-01
    1.041117E+02     3.146270E-01
    5.052749E+01     3.107540E-01
    2.485247E+01     1.421920E-01
    1.128102E+01     1.658490E-02
    5.510166E+00    -2.759760E-04
    2.706914E+00     5.158310E-04
    1.122807E+00    -2.268950E-04
    5.236385E-01     6.652980E-05
    2.355180E-01    -3.685150E-05
    4.157977E-02     1.925250E-05
    2.555456E-02    -2.108420E-05
    1.471495E-02     7.044600E-06
 S 23 1.00
    2.709796E+07    -1.188290E-07
    3.592856E+06    -1.108550E-06
    7.222638E+05    -6.881230E-06
    1.833976E+05    -3.324150E-05
    5.464812E+04    -1.350850E-04
    1.830913E+04    -4.814570E-04
    6.712501E+03    -1.552620E-03
    2.643719E+03    -4.578330E-03
    1.103835E+03    -1.247930E-02
    4.836777E+02    -3.094650E-02
    2.206245E+02    -6.855530E-02
    1.041117E+02    -1.268300E-01
    5.052749E+01    -1.745020E-01
    2.485247E+01    -9.089560E-02
    1.128102E+01     2.506960E-01
    5.510166E+00     5.589630E-01
    2.706914E+00     3.284370E-01
    1.122807E+00     3.392170E-02
    5.236385E-01    -2.100280E-03
    2.355180E-01     1.383960E-03
    4.157977E-02    -5.315630E-04
    2.555456E-02     5.770310E-04
    1.471495E-02    -1.931440E-04
 S 23 1.00
    2.709796E+07     3.917470E-08
    3.592856E+06     3.650640E-07
    7.222638E+05     2.269460E-06
    1.833976E+05     1.094290E-05
    5.464812E+04     4.457360E-05
    1.830913E+04     1.584480E-04
    6.712501E+03     5.128440E-04
    2.643719E+03     1.507690E-03
    1.103835E+03     4.136940E-03
    4.836777E+02     1.024690E-02
    2.206245E+02     2.306520E-02
    1.041117E+02     4.308900E-02
    5.052749E+01     6.238120E-02
    2.485247E+01     3.270420E-02
    1.128102E+01    -1.021980E-01
    5.510166E+00    -3.317970E-01
    2.706914E+00    -3.030100E-01
    1.122807E+00     3.098410E-01
    5.236385E-01     6.732700E-01
    2.355180E-01     2.812200E-01
    4.157977E-02     9.376240E-03
    2.555456E-02    -6.955720E-03
    1.471495E-02     2.069460E-03
 S 23 1.00
    2.709796E+07    -7.564440E-09
    3.592856E+06    -7.055390E-08
    7.222638E+05    -4.380820E-07
    1.833976E+05    -2.115540E-06
    5.464812E+04    -8.601300E-06
    1.830913E+04    -3.064440E-05
    6.712501E+03    -9.892550E-05
    2.643719E+03    -2.917760E-04
    1.103835E+03    -7.977860E-04
    4.836777E+02    -1.985820E-03
    2.206245E+02    -4.449740E-03
    1.041117E+02    -8.390260E-03
    5.052749E+01    -1.206000E-02
    2.485247E+01    -6.568410E-03
    1.128102E+01     2.061430E-02
    5.510166E+00     6.770060E-02
    2.706914E+00     6.639570E-02
    1.122807E+00    -8.237770E-02
    5.236385E-01    -1.727150E-01
    2.355180E-01    -2.310290E-01
    4.157977E-02     5.090040E-01
    2.555456E-02     3.472180E-01
    1.471495E-02     2.809620E-01
 S 1 1.00
    2.555456E-02     1.000000E+00
 S 1 1.00
    1.471495E-02     1.000000E+00
 S 1 1.00
    8.470000E-03     1.000000E+00
 P 16 1.00
    9.533309E+03     4.212010E-05
    1.852081E+03     5.068300E-04
    5.464251E+02     3.311700E-03
    1.966947E+02     1.536840E-02
    7.964112E+01     5.457060E-02
    3.488324E+01     1.473880E-01
    1.604479E+01     2.879240E-01
    7.575632E+00     3.750810E-01
    3.672548E+00     2.545160E-01
    1.771130E+00     6.059280E-02
    8.515199E-01     2.508370E-03
    4.016017E-01     6.688870E-04
    1.851933E-01    -1.486150E-04
    5.523390E-02     4.936010E-05
    2.431085E-02    -3.513850E-05
    1.080339E-02     1.171450E-05
 P 16 1.00
    9.533309E+03    -1.280760E-05
    1.852081E+03    -1.547870E-04
    5.464251E+02    -1.010940E-03
    1.966947E+02    -4.738330E-03
    7.964112E+01    -1.703260E-02
    3.488324E+01    -4.754130E-02
    1.604479E+01    -9.560810E-02
    7.575632E+00    -1.337000E-01
    3.672548E+00    -7.425060E-02
    1.771130E+00     1.646810E-01
    8.515199E-01     4.057630E-01
    4.016017E-01     4.113600E-01
    1.851933E-01     1.734240E-01
    5.523390E-02     1.253640E-02
    2.431085E-02    -3.267140E-03
    1.080339E-02     1.039680E-03
 P 16 1.00
    9.533309E+03     1.764010E-06
    1.852081E+03     2.124880E-05
    5.464251E+02     1.392500E-04
    1.966947E+02     6.509140E-04
    7.964112E+01     2.349940E-03
    3.488324E+01     6.547470E-03
    1.604479E+01     1.326270E-02
    7.575632E+00     1.848520E-02
    3.672548E+00     1.025530E-02
    1.771130E+00    -2.652150E-02
    8.515199E-01    -6.086460E-02
    4.016017E-01    -7.474220E-02
    1.851933E-01    -4.870880E-02
    5.523390E-02     2.245720E-01
    2.431085E-02     5.839280E-01
    1.080339E-02     2.980960E-01
 P 1 1.00
    5.523390E-02     1.000000E+00
 P 1 1.00
    1.080339E-02     1.000000E+00
 P 1 1.00
    4.800000E-03     1.000000E+00
 D 6 1.00
    5.670903E+00     8.285900E-03
    1.459042E+00     2.332530E-02
    5.431827E-01     4.878080E-02
    1.346875E-01     7.349020E-02
    5.516013E-02     2.387630E-01
    1.501876E-02     8.253200E-01
 D 1 1.00
    5.516013E-02     1.000000E+00
 D 1 1.00
    1.501876E-02     1.000000E+00
 D 1 1.00
    6.010000E-03     1.000000E+00
 F 1 1.00
    8.493750E-02     1.000000E+00
 F 1 1.00
    3.398000E-02     1.000000E+00
 ****
}

molecule  {
0 2
S    0.000000000000   -0.000383653871    0.485999287107
S    0.000000000000    0.000227541627    2.501070913907
K    0.000000000000    0.000128099512   -2.451071257893
}
set {
basis jerome
reference uhf
g_convergence gau_verytight
e_convergence 10
scf_type pk
freeze_core true
geom_maxiter 100
}

set ccenergy {
e_convergence 10
r_convergence 10
}

e = energy('ccsd(t)')

print_out('Stephenergy {}'.format(e))

--------------------------------------------------------------------------

    Molecular point group: cs

    Geometry (in Angstrom), charge = 0, multiplicity = 2:

       Center              X                  Y                   Z               Mass
    ------------   -----------------  -----------------  -----------------  -----------------
         S            0.000383653871    -0.485999287107     0.000000000000    31.972071174400
         S           -0.000227541627    -2.501070913907     0.000000000000    31.972071174400
         K           -0.000128099512     2.451071257893     0.000000000000    38.963706486400

  Charge       = 0
  Multiplicity = 2
  Basis Set: JEROME
    Blend: AUG-CC-PV(T+D)Z + POT

    Orbital Energies [Eh]
    ---------------------

    Alpha Occupied:

       1Ap  -133.573104     2Ap   -91.907695     3Ap   -91.876580
       4Ap   -14.529561     1App  -11.559568     5Ap   -11.559507
       6Ap   -11.559420     7Ap    -8.905735     8Ap    -8.876393
       2App   -6.598210     9Ap    -6.583886    10Ap    -6.581897
       3App   -6.561262    11Ap    -6.556741    12Ap    -6.555507
      13Ap    -1.788123     4App   -0.996574    14Ap    -0.996546
      15Ap    -0.996068    16Ap    -0.950559    17Ap    -0.740332
       5App   -0.413039    18Ap    -0.410169    19Ap    -0.374413
       6App   -0.276589    20Ap    -0.239232

    Alpha Virtual:

      21Ap    -0.025359     7App    0.000214    22Ap     0.000466
      23Ap     0.003573    24Ap     0.014386     8App    0.016334
      25Ap     0.016348     9App    0.017613    26Ap     0.017937
      10App    0.022314    27Ap     0.022783    28Ap     0.026569
      29Ap     0.030654    11App    0.048229    30Ap     0.048234
      12App    0.057905    31Ap     0.058921    32Ap     0.061363
      13App    0.069035    33Ap     0.069757    34Ap     0.080130
      35Ap     0.091677    36Ap     0.107448    14App    0.116991
      37Ap     0.118444    15App    0.122995    38Ap     0.122996
      39Ap     0.128571    16App    0.128616    40Ap     0.131757
      17App    0.146423    41Ap     0.146443    18App    0.157303
      42Ap     0.161984    43Ap     0.167959    19App    0.183117
      44Ap     0.187091    45Ap     0.197647    46Ap     0.221367
      20App    0.221547    47Ap     0.223531    21App    0.231214
      48Ap     0.234759    49Ap     0.277379    50Ap     0.306778
      51Ap     0.315071    22App    0.317861    52Ap     0.323745
      23App    0.358552    53Ap     0.365102    24App    0.367680
      54Ap     0.367847    25App    0.376016    55Ap     0.376017
      26App    0.378959    56Ap     0.378959    27App    0.396723
      57Ap     0.399999    58Ap     0.400256    59Ap     0.438912
      28App    0.452342    60Ap     0.452767    61Ap     0.455589
      29App    0.455664    62Ap     0.465925    63Ap     0.534042
      30App    0.539154    64Ap     0.551673    31App    0.649900
      65Ap     0.666485    66Ap     0.717939    32App    0.733237
      67Ap     0.746901    68Ap     0.755058    33App    0.758482
      69Ap     0.775216    34App    0.841000    35App    0.855072
      70Ap     0.855088    71Ap     0.861785    72Ap     0.871066
      36App    0.874856    73Ap     0.874871    37App    0.938334
      74Ap     0.952554    75Ap     0.965440    38App    0.968617
      76Ap     0.969605    39App    1.017504    77Ap     1.017515
      78Ap     1.041627    79Ap     1.176214    40App    1.188531
      80Ap     1.204004    81Ap     1.220427    41App    1.221581
      82Ap     1.269302    42App    1.380716    83Ap     1.397655
      84Ap     1.521492    85Ap     1.724460    43App    2.001170
      86Ap     2.001884    87Ap     2.090012    44App    2.090045
      45App    2.136256    88Ap     2.136849    89Ap     2.155539
      46App    2.226887    90Ap     2.248891    47App    2.308442
      91Ap     2.309124    92Ap     2.328333    48App    2.387052
      93Ap     2.387584    49App    2.411158    94Ap     2.411297
      50App    2.477682    95Ap     2.477995    51App    2.478411
      96Ap     2.502230    97Ap     2.503911    52App    2.604827
      98Ap     2.612864    53App    2.613596    99Ap     2.624396
     100Ap     2.755000   101Ap     2.865071    54App    2.928714
     102Ap     2.950428   103Ap     4.064243   104Ap     5.004445
     105Ap     5.793270   106Ap     7.396457    55App    7.396619
     107Ap     7.450342    56App    7.450359    57App    7.476995
     108Ap     7.492927    58App    7.553487   109Ap     7.561650
     110Ap     7.616620   111Ap     7.668518

    Beta Occupied:

       1Ap  -133.573116     2Ap   -91.900048     3Ap   -91.874041
       4Ap   -14.529579     1App  -11.559528     5Ap   -11.559522
       6Ap   -11.559469     7Ap    -8.897397     8Ap    -8.873622
       9Ap    -6.579606    10Ap    -6.577305     2App   -6.564612
      11Ap    -6.556163    12Ap    -6.553885     3App   -6.549580
      13Ap    -1.788153     4App   -0.996307    14Ap    -0.996133
      15Ap    -0.996029    16Ap    -0.912348    17Ap    -0.675688
      18Ap    -0.394108    19Ap    -0.365594     5App   -0.298235
      20Ap    -0.227356

    Beta Virtual:

      21Ap    -0.025248     6App    0.000165    22Ap     0.000467
      23Ap     0.003626    24Ap     0.014386     7App    0.016334
      25Ap     0.016349     8App    0.017449    26Ap     0.017940
       9App    0.022353    27Ap     0.022783    28Ap     0.026710
      29Ap     0.030688    10App    0.048258    30Ap     0.048261
      11App    0.056993    31Ap     0.058936    32Ap     0.061368
      12App    0.065371    33Ap     0.069766    13App    0.079559
      34Ap     0.080056    35Ap     0.092650    36Ap     0.108617
      37Ap     0.118562    14App    0.122868    38Ap     0.123015
      15App    0.123083    39Ap     0.128644    16App    0.128691
      40Ap     0.131901    17App    0.146823    41Ap     0.146831
      42Ap     0.162174    18App    0.162812    43Ap     0.167781
      44Ap     0.187616    19App    0.197362    45Ap     0.206190
      20App    0.222720    46Ap     0.223051    47Ap     0.223522
      48Ap     0.234449    21App    0.238354    49Ap     0.277419
      50Ap     0.309828    51Ap     0.323589    22App    0.327368
      52Ap     0.328005    53Ap     0.364747    23App    0.367175
      24App    0.372586    54Ap     0.372648    55Ap     0.376155
      25App    0.376155    26App    0.379350    56Ap     0.379355
      57Ap     0.399772    58Ap     0.400753    27App    0.401427
      59Ap     0.443928    60Ap     0.457161    28App    0.460474
      61Ap     0.460950    62Ap     0.466713    29App    0.474676
      63Ap     0.540368    64Ap     0.552754    30App    0.565150
      65Ap     0.668678    31App    0.672142    66Ap     0.722875
      67Ap     0.749193    32App    0.755867    68Ap     0.775534
      69Ap     0.789379    33App    0.789734    70Ap     0.863226
      34App    0.873199    71Ap     0.878338    35App    0.880636
      72Ap     0.880790    36App    0.880974    73Ap     0.881180
      74Ap     0.953010    37App    0.959600    75Ap     0.972419
      38App    0.979309    76Ap     0.979528    77Ap     1.027137
      39App    1.027143    78Ap     1.047139    79Ap     1.181875
      40App    1.201495    80Ap     1.204410    81Ap     1.228497
      41App    1.228863    82Ap     1.273326    42App    1.397319
      83Ap     1.399669    84Ap     1.535126    85Ap     1.735752
      86Ap     2.020525    43App    2.020565    87Ap     2.101842
      44App    2.101946    88Ap     2.138818    45App    2.149811
      89Ap     2.156808    46App    2.249784    90Ap     2.251185
      91Ap     2.314043    47App    2.325580    92Ap     2.330394
      48App    2.399525    93Ap     2.399570    94Ap     2.434942
      49App    2.434945    95Ap     2.496051    50App    2.496054
      96Ap     2.506682    97Ap     2.507884    51App    2.512966
      98Ap     2.626408    52App    2.626530    53App    2.626747
      99Ap     2.627439   100Ap     2.761198   101Ap     2.869712
      54App    2.948561   102Ap     2.952473   103Ap     4.067391
     104Ap     5.014666   105Ap     5.802476   106Ap     7.404667
      55App    7.404744   107Ap     7.454233    56App    7.454246
      57App    7.484541   108Ap     7.494004    58App    7.557013
     109Ap     7.562036   110Ap     7.619053   111Ap     7.669978

    Final Occupation by Irrep:
             Ap   App
    DOCC [    20,    5 ]
    SOCC [     0,    1 ]

  @UHF Final Energy: -1394.29577641889227

   => Energetics <=

    Nuclear Repulsion Energy =            154.4851860189178012
    One-Electron Energy =               -2234.2377910857203460
    Two-Electron Energy =                 685.4568286479102426
    Total Energy =                      -1394.2957764188922738

  UHF NO Occupations:
  HONO-2 :   20 Ap 1.9957378
  HONO-1 :    5App 1.9922264
  HONO-0 :    6App 1.0000000
  LUNO+0 :    7App 0.0077736
  LUNO+1 :   21 Ap 0.0042622
  LUNO+2 :   22 Ap 0.0009123
  LUNO+3 :   23 Ap 0.0003813

Computation Completed

Properties will be evaluated at   0.000000,   0.000000,   0.000000 [a0]

Properties computed using the SCF density matrix

  Nuclear Dipole Moment: [e a0]
     X:     0.0001      Y:    -2.3107      Z:     0.0000

  Electronic Dipole Moment: [e a0]
     X:    -0.0006      Y:     7.8485      Z:     0.0000

  Dipole Moment: [e a0]
     X:    -0.0005      Y:     5.5378      Z:     0.0000     Total:     5.5378

  Dipole Moment: [D]
     X:    -0.0013      Y:    14.0756      Z:     0.0000     Total:    14.0756

*** tstop() called on d5-5.compute.lan at Wed Mar 10 12:55:05 2021
Module time:
	user time   =     198.73 seconds =       3.31 minutes
	system time =       2.17 seconds =       0.04 minutes
	total time  =         55 seconds =       0.92 minutes
Total time:
	user time   =     198.73 seconds =       3.31 minutes
	system time =       2.17 seconds =       0.04 minutes
	total time  =         55 seconds =       0.92 minutes
 MINTS: Wrapper to libmints.
   by Justin Turney

   Calculation information:
      Number of threads:                12
      Number of atoms:                   3
      Number of AO shells:              53
      Number of SO shells:              53
      Number of primitives:            287
      Number of atomic orbitals:       199
      Number of basis functions:       169

      Number of irreps:                  2
      Integral cutoff                 0.00e+00
      Number of functions per irrep: [ 111   58 ]

 OEINTS: Overlap, kinetic, potential, dipole, and quadrupole integrals
         stored in file 35.

      Computing two-electron integrals...done
      Computed 51012936 non-zero two-electron integrals.
        Stored in file 33.

*** tstart() called on d5-5.compute.lan
*** at Wed Mar 10 12:56:39 2021

	Wfn Parameters:
	--------------------
	Wavefunction         = CCSD_T
	Number of irreps     = 2
	Number of MOs        = 169
	Number of active MOs = 150
	AO-Basis             = NONE
	Semicanonical        = false
	Reference            = UHF
	Print Level          = 1

	IRREP	# MOs	# FZDC	# DOCC	# SOCC	# VIRT	# FZVR
	-----	-----	------	------	------	------	------
	 Ap	   111	    15	    5	    0	    91	    0
	 App	   58	    4	    1	    1	    52	    0
	Transforming integrals...
	IWL integrals will be deleted.
	(OO|OO)...
	Presorting SO-basis two-electron integrals.
	Sorting File: SO Ints (nn|nn) nbuckets = 1
	Transforming the one-electron integrals and constructing Fock matrices
	Starting AA/AB first half-transformation.
	Sorting AA/AB half-transformed integrals.
	Starting BB first half-transformation.
	Sorting BB half-transformed integrals.
	First half integral transformation complete.
	Starting AA second half-transformation.
	Starting AB second half-transformation.
	Starting BB second half-transformation.
	Two-electron integral transformation complete.
	(OO|OV)...
	Starting AA second half-transformation.
	Starting AB second half-transformation.
	Starting BB second half-transformation.
	Two-electron integral transformation complete.
	(OO|VV)...
	Starting AA second half-transformation.
	Starting AB second half-transformation.
	Starting BB second half-transformation.
	Two-electron integral transformation complete.
	(OV|OO)...
	Starting AA/AB first half-transformation.
	Sorting AA/AB half-transformed integrals.
	Starting BB first half-transformation.
	Sorting BB half-transformed integrals.
	First half integral transformation complete.
	Starting AA second half-transformation.
	Starting AB second half-transformation.
	Starting BB second half-transformation.
	Two-electron integral transformation complete.
	(OV|OV)...
	Starting AA second half-transformation.
	Starting AB second half-transformation.
	Starting BB second half-transformation.
	Two-electron integral transformation complete.
	(OV|VV)...
	Starting AA second half-transformation.
	Starting AB second half-transformation.
	Starting BB second half-transformation.
	Two-electron integral transformation complete.
	(VV|OO)...
	Starting AA/AB first half-transformation.
	Sorting AA/AB half-transformed integrals.
	Starting BB first half-transformation.
	Sorting BB half-transformed integrals.
	First half integral transformation complete.
	Starting AA second half-transformation.
	Starting AB second half-transformation.
	Starting BB second half-transformation.
	Two-electron integral transformation complete.
	(VV|OV)...
	Starting AA second half-transformation.
	Starting AB second half-transformation.
	Starting BB second half-transformation.
	Two-electron integral transformation complete.
	(VV|VV)...
	Starting AA second half-transformation.
	Starting AB second half-transformation.
	Starting BB second half-transformation.
	Two-electron integral transformation complete.
	Frozen core energy     =  -1517.51403847543224

	Size of irrep 0 of <AB|CD> integrals:     29.387 (MW) /    235.098 (MB)
	Size of irrep 1 of <AB|CD> integrals:     22.392 (MW) /    179.135 (MB)
	Total:                                    51.779 (MW) /    414.233 (MB)

	Size of irrep 0 of <ab|cd> integrals:     29.954 (MW) /    239.630 (MB)
	Size of irrep 1 of <ab|cd> integrals:     23.261 (MW) /    186.091 (MB)
	Total:                                    53.215 (MW) /    425.720 (MB)

	Size of irrep 0 of <Ab|Cd> integrals:    121.815 (MW) /    974.523 (MB)
	Size of irrep 1 of <Ab|Cd> integrals:     91.298 (MW) /    730.384 (MB)
	Total:                                   213.113 (MW) /   1704.907 (MB)

	Size of irrep 0 of <IA|BC> integrals:      6.141 (MW) /     49.125 (MB)
	Size of irrep 1 of <IA|BC> integrals:      4.183 (MW) /     33.465 (MB)
	Total:                                    10.324 (MW) /     82.590 (MB)

	Size of irrep 0 of <ia|bc> integrals:      5.634 (MW) /     45.070 (MB)
	Size of irrep 1 of <ia|bc> integrals:      3.434 (MW) /     27.472 (MB)
	Total:                                     9.068 (MW) /     72.542 (MB)

	Size of irrep 0 of <Ia|Bc> integrals:      6.192 (MW) /     49.534 (MB)
	Size of irrep 1 of <Ia|Bc> integrals:      4.271 (MW) /     34.169 (MB)
	Total:                                    10.463 (MW) /     83.703 (MB)

	Size of irrep 0 of <iA|bC> integrals:      5.596 (MW) /     44.766 (MB)
	Size of irrep 1 of <iA|bC> integrals:      3.354 (MW) /     26.830 (MB)
	Total:                                     8.950 (MW) /     71.597 (MB)

	Size of irrep 0 of tIjAb amplitudes:       0.298 (MW) /      2.384 (MB)
	Size of irrep 1 of tIjAb amplitudes:       0.143 (MW) /      1.147 (MB)
	Total:                                     0.441 (MW) /      3.531 (MB)

	Nuclear Rep. energy          =    154.48518601891780
	SCF energy                   =  -1394.29577641889227
	One-electron energy          =    -56.25618655229136
	Two-electron (AA) energy     =      6.13725129352688
	Two-electron (BB) energy     =      4.38860017110533
	Two-electron (AB) energy     =     14.46341112527407
	Two-electron energy          =     24.98926258990628
	Reference energy             =  -1394.29577641889955

*** tstop() called on d5-5.compute.lan at Wed Mar 10 12:59:29 2021
Module time:
	user time   =     715.75 seconds =      11.93 minutes
	system time =      40.55 seconds =       0.68 minutes
	total time  =        170 seconds =       2.83 minutes
Total time:
	user time   =    1009.83 seconds =      16.83 minutes
	system time =      43.84 seconds =       0.73 minutes
	total time  =        319 seconds =       5.32 minutes
            **************************
            *                        *
            *        CCENERGY        *
            *                        *
            **************************

    Nuclear Rep. energy (wfn)     =  154.485186018917801
    SCF energy          (wfn)     = -1394.295776418892274
    Reference energy    (file100) = -1394.295776418899550

    Input parameters:
    -----------------
    Wave function   =     CCSD_T
    Reference wfn   =     UHF
    Brueckner       =     No
    Memory (Mbytes) =     46000.0
    Maxiter         =     50
    R_Convergence   =     1.0e-10
    E_Convergence   =     1.0e-10
    Restart         =     Yes
    DIIS            =     Yes
    AO Basis        =     NONE
    ABCD            =     NEW
    Cache Level     =     2
    Cache Type      =     LRU
    Print Level     =     1
    Num. of threads =     12
    # Amps to Print =     10
    Print MP2 Amps? =     No
    Analyze T2 Amps =     No
    Print Pair Ener =     No
    Local CC        =     No
    SCS-MP2         =     False
    SCSN-MP2        =     False
    SCS-CCSD        =     False

MP2 correlation energy -0.3404594245313053
                Solving CC Amplitude Equations
                ------------------------------
  Iter             Energy              RMS        T1Diag      D1Diag    New D1Diag    D2Diag
  ----     ---------------------    ---------   ----------  ----------  ----------   --------
     0        -0.340459424531305    0.000e+00    0.000000    0.000000    0.000000    0.000000
     1        -0.356338942601799    8.616e-02    0.017712    0.000000    0.000000    0.000000
     2        -0.367047238457246    2.921e-02    0.021779    0.000000    0.000000    0.000000
     3        -0.369616364265640    2.087e-02    0.027858    0.000000    0.000000    0.000000
     4        -0.369606637541608    1.150e-02    0.033599    0.000000    0.000000    0.000000
     5        -0.369674937935524    6.655e-03    0.037204    0.000000    0.000000    0.000000
     6        -0.369759407119705    3.108e-03    0.039020    0.000000    0.000000    0.000000
     7        -0.369774500549685    1.312e-03    0.039387    0.000000    0.000000    0.000000
     8        -0.369780655467892    4.754e-04    0.039417    0.000000    0.000000    0.000000
     9        -0.369792603115526    2.222e-04    0.039456    0.000000    0.000000    0.000000
    10        -0.369789626675036    9.579e-05    0.039464    0.000000    0.000000    0.000000
    11        -0.369787696293851    3.946e-05    0.039453    0.000000    0.000000    0.000000
    12        -0.369787025545951    1.931e-05    0.039457    0.000000    0.000000    0.000000
    13        -0.369786445373231    8.883e-06    0.039457    0.000000    0.000000    0.000000
    14        -0.369786371551781    3.561e-06    0.039456    0.000000    0.000000    0.000000
    15        -0.369786400798584    1.747e-06    0.039456    0.000000    0.000000    0.000000
    16        -0.369786396043346    9.455e-07    0.039456    0.000000    0.000000    0.000000

      * MP2 total energy                      = -1394.636235843430768
      * CCSD total energy                     = -1394.665562805379750
      * CCSD(T) total energy                     = -1394.686971931893368
*** Psi4 exiting successfully. Buy a developer a beer!
