                               Psi4 1.3.2 release

  ==> Input File <==

--------------------------------------------------------------------------
memory 46 GB

basis jerome {
assign pot
assign S aug-cc-pV(T+d)Z

[pot]
spherical
****
 K  0
 S 23 1.00
    2.709796E+07     4.136110E-07
    3.592856E+06     3.860330E-06
    7.222638E+05     2.394640E-05
    1.833976E+05     1.157540E-04
    5.464812E+04     4.697010E-04
    1.830913E+04     1.673720E-03
    6.712501E+03     5.370450E-03
    2.643719E+03     1.572510E-02
    1.103835E+03     4.193360E-02
    4.836777E+02     9.987620E-02
    2.206245E+02     2.019680E-01
    1.041117E+02     3.146270E-01
    5.052749E+01     3.107540E-01
    2.485247E+01     1.421920E-01
    1.128102E+01     1.658490E-02
    5.510166E+00    -2.759760E-04
    2.706914E+00     5.158310E-04
    1.122807E+00    -2.268950E-04
    5.236385E-01     6.652980E-05
    2.355180E-01    -3.685150E-05
    4.157977E-02     1.925250E-05
    2.555456E-02    -2.108420E-05
    1.471495E-02     7.044600E-06
 S 23 1.00
    2.709796E+07    -1.188290E-07
    3.592856E+06    -1.108550E-06
    7.222638E+05    -6.881230E-06
    1.833976E+05    -3.324150E-05
    5.464812E+04    -1.350850E-04
    1.830913E+04    -4.814570E-04
    6.712501E+03    -1.552620E-03
    2.643719E+03    -4.578330E-03
    1.103835E+03    -1.247930E-02
    4.836777E+02    -3.094650E-02
    2.206245E+02    -6.855530E-02
    1.041117E+02    -1.268300E-01
    5.052749E+01    -1.745020E-01
    2.485247E+01    -9.089560E-02
    1.128102E+01     2.506960E-01
    5.510166E+00     5.589630E-01
    2.706914E+00     3.284370E-01
    1.122807E+00     3.392170E-02
    5.236385E-01    -2.100280E-03
    2.355180E-01     1.383960E-03
    4.157977E-02    -5.315630E-04
    2.555456E-02     5.770310E-04
    1.471495E-02    -1.931440E-04
 S 23 1.00
    2.709796E+07     3.917470E-08
    3.592856E+06     3.650640E-07
    7.222638E+05     2.269460E-06
    1.833976E+05     1.094290E-05
    5.464812E+04     4.457360E-05
    1.830913E+04     1.584480E-04
    6.712501E+03     5.128440E-04
    2.643719E+03     1.507690E-03
    1.103835E+03     4.136940E-03
    4.836777E+02     1.024690E-02
    2.206245E+02     2.306520E-02
    1.041117E+02     4.308900E-02
    5.052749E+01     6.238120E-02
    2.485247E+01     3.270420E-02
    1.128102E+01    -1.021980E-01
    5.510166E+00    -3.317970E-01
    2.706914E+00    -3.030100E-01
    1.122807E+00     3.098410E-01
    5.236385E-01     6.732700E-01
    2.355180E-01     2.812200E-01
    4.157977E-02     9.376240E-03
    2.555456E-02    -6.955720E-03
    1.471495E-02     2.069460E-03
 S 23 1.00
    2.709796E+07    -7.564440E-09
    3.592856E+06    -7.055390E-08
    7.222638E+05    -4.380820E-07
    1.833976E+05    -2.115540E-06
    5.464812E+04    -8.601300E-06
    1.830913E+04    -3.064440E-05
    6.712501E+03    -9.892550E-05
    2.643719E+03    -2.917760E-04
    1.103835E+03    -7.977860E-04
    4.836777E+02    -1.985820E-03
    2.206245E+02    -4.449740E-03
    1.041117E+02    -8.390260E-03
    5.052749E+01    -1.206000E-02
    2.485247E+01    -6.568410E-03
    1.128102E+01     2.061430E-02
    5.510166E+00     6.770060E-02
    2.706914E+00     6.639570E-02
    1.122807E+00    -8.237770E-02
    5.236385E-01    -1.727150E-01
    2.355180E-01    -2.310290E-01
    4.157977E-02     5.090040E-01
    2.555456E-02     3.472180E-01
    1.471495E-02     2.809620E-01
 S 1 1.00
    2.555456E-02     1.000000E+00
 S 1 1.00
    1.471495E-02     1.000000E+00
 S 1 1.00
    8.470000E-03     1.000000E+00
 P 16 1.00
    9.533309E+03     4.212010E-05
    1.852081E+03     5.068300E-04
    5.464251E+02     3.311700E-03
    1.966947E+02     1.536840E-02
    7.964112E+01     5.457060E-02
    3.488324E+01     1.473880E-01
    1.604479E+01     2.879240E-01
    7.575632E+00     3.750810E-01
    3.672548E+00     2.545160E-01
    1.771130E+00     6.059280E-02
    8.515199E-01     2.508370E-03
    4.016017E-01     6.688870E-04
    1.851933E-01    -1.486150E-04
    5.523390E-02     4.936010E-05
    2.431085E-02    -3.513850E-05
    1.080339E-02     1.171450E-05
 P 16 1.00
    9.533309E+03    -1.280760E-05
    1.852081E+03    -1.547870E-04
    5.464251E+02    -1.010940E-03
    1.966947E+02    -4.738330E-03
    7.964112E+01    -1.703260E-02
    3.488324E+01    -4.754130E-02
    1.604479E+01    -9.560810E-02
    7.575632E+00    -1.337000E-01
    3.672548E+00    -7.425060E-02
    1.771130E+00     1.646810E-01
    8.515199E-01     4.057630E-01
    4.016017E-01     4.113600E-01
    1.851933E-01     1.734240E-01
    5.523390E-02     1.253640E-02
    2.431085E-02    -3.267140E-03
    1.080339E-02     1.039680E-03
 P 16 1.00
    9.533309E+03     1.764010E-06
    1.852081E+03     2.124880E-05
    5.464251E+02     1.392500E-04
    1.966947E+02     6.509140E-04
    7.964112E+01     2.349940E-03
    3.488324E+01     6.547470E-03
    1.604479E+01     1.326270E-02
    7.575632E+00     1.848520E-02
    3.672548E+00     1.025530E-02
    1.771130E+00    -2.652150E-02
    8.515199E-01    -6.086460E-02
    4.016017E-01    -7.474220E-02
    1.851933E-01    -4.870880E-02
    5.523390E-02     2.245720E-01
    2.431085E-02     5.839280E-01
    1.080339E-02     2.980960E-01
 P 1 1.00
    5.523390E-02     1.000000E+00
 P 1 1.00
    1.080339E-02     1.000000E+00
 P 1 1.00
    4.800000E-03     1.000000E+00
 D 6 1.00
    5.670903E+00     8.285900E-03
    1.459042E+00     2.332530E-02
    5.431827E-01     4.878080E-02
    1.346875E-01     7.349020E-02
    5.516013E-02     2.387630E-01
    1.501876E-02     8.253200E-01
 D 1 1.00
    5.516013E-02     1.000000E+00
 D 1 1.00
    1.501876E-02     1.000000E+00
 D 1 1.00
    6.010000E-03     1.000000E+00
 F 1 1.00
    8.493750E-02     1.000000E+00
 F 1 1.00
    3.398000E-02     1.000000E+00
 ****
}

molecule  {
0 2
S   -1.155682249548    1.089660575810    0.000000000000
S   -1.155237069655   -1.089487224362    0.000000000000
K    1.896248678951   -0.000142245319    0.000000000000
}
set {
basis jerome
reference uhf
g_convergence gau_verytight
e_convergence 10
scf_type pk
freeze_core true
geom_maxiter 100
}

set ccenergy {
e_convergence 10
r_convergence 10
}

e = energy('ccsd(t)')

print_out('Stephenergy {}'.format(e))

--------------------------------------------------------------------------

    Molecular point group: cs

    Geometry (in Angstrom), charge = 0, multiplicity = 2:

       Center              X                  Y                   Z               Mass
    ------------   -----------------  -----------------  -----------------  -----------------
         S           -1.155682249548     1.089660575810     0.000000000000    31.972071174400
         S           -1.155237069655    -1.089487224362     0.000000000000    31.972071174400
         K            1.896248678951    -0.000142245319     0.000000000000    38.963706486400

  Charge       = 0
  Multiplicity = 2
  Basis Set: JEROME
    Blend: AUG-CC-PV(T+D)Z + POT

    Orbital Energies [Eh]
    ---------------------

    Alpha Occupied:

       1Ap  -133.552488     2Ap   -91.917936     3Ap   -91.916030
       4Ap   -14.508964     1App  -11.538944     5Ap   -11.538864
       6Ap   -11.538800     7Ap    -8.914178     8Ap    -8.912274
       2App   -6.603463     3App   -6.601199     9Ap    -6.592712
      10Ap    -6.591369    11Ap    -6.590843    12Ap    -6.589540
      13Ap    -1.767617     4App   -0.976830    14Ap    -0.975894
      15Ap    -0.975609    16Ap    -0.928410    17Ap    -0.772912
       5App   -0.410178    18Ap    -0.394336    19Ap    -0.381773
       6App   -0.310479    20Ap    -0.275738

    Alpha Virtual:

      21Ap    -0.017993     7App    0.002797    22Ap     0.003187
      23Ap     0.006388    24Ap     0.016846     8App    0.017317
      25Ap     0.017490     9App    0.020705    26Ap     0.021458
      27Ap     0.022369    10App    0.022831    28Ap     0.028534
      29Ap     0.033824    30Ap     0.051916    11App    0.052014
      31Ap     0.055495    12App    0.059335    32Ap     0.062213
      13App    0.075160    33Ap     0.075498    34Ap     0.088375
      35Ap     0.104657    36Ap     0.107030    37Ap     0.125800
      14App    0.126611    38Ap     0.128894    39Ap     0.128957
      15App    0.129982    16App    0.133805    40Ap     0.134878
      41Ap     0.152527    42Ap     0.153447    17App    0.154212
      43Ap     0.163105    18App    0.167820    44Ap     0.175468
      19App    0.179322    20App    0.190173    45Ap     0.193390
      46Ap     0.209472    47Ap     0.221679    21App    0.235876
      48Ap     0.249222    49Ap     0.272358    50Ap     0.308002
      51Ap     0.319579    22App    0.331930    52Ap     0.350649
      53Ap     0.358820    23App    0.380277    24App    0.382739
      54Ap     0.383441    55Ap     0.385654    25App    0.389670
      56Ap     0.394069    26App    0.398947    57Ap     0.409791
      27App    0.411030    58Ap     0.429554    59Ap     0.432423
      60Ap     0.441531    28App    0.449510    29App    0.457819
      61Ap     0.464826    30App    0.465871    62Ap     0.493228
      63Ap     0.510751    64Ap     0.530589    31App    0.669336
      32App    0.707079    33App    0.708393    65Ap     0.715099
      66Ap     0.734620    67Ap     0.747068    68Ap     0.778741
      34App    0.803919    69Ap     0.804730    70Ap     0.815962
      35App    0.843988    71Ap     0.849043    72Ap     0.863828
      36App    0.873866    37App    0.903580    73Ap     0.915104
      74Ap     0.933807    75Ap     0.948346    76Ap     0.972682
      77Ap     0.997817    38App    1.013366    39App    1.041279
      78Ap     1.058344    79Ap     1.070636    40App    1.137674
      80Ap     1.158667    81Ap     1.176585    41App    1.182710
      82Ap     1.199285    42App    1.347347    83Ap     1.379240
      84Ap     1.420255    85Ap     1.658923    43App    2.016443
      86Ap     2.030229    44App    2.054991    87Ap     2.062465
      45App    2.071190    88Ap     2.078047    89Ap     2.162353
      46App    2.209825    90Ap     2.269628    91Ap     2.304878
      47App    2.308573    92Ap     2.333494    93Ap     2.371034
      48App    2.400291    49App    2.418387    94Ap     2.418553
      95Ap     2.448756    96Ap     2.463476    50App    2.472096
      51App    2.507373    52App    2.522930    97Ap     2.546837
      53App    2.553168    98Ap     2.599224    99Ap     2.634221
     100Ap     2.679512   101Ap     2.683465    54App    2.789982
     102Ap     2.826160   103Ap     3.829969   104Ap     4.871521
     105Ap     5.732950    55App    7.405454   106Ap     7.411103
     107Ap     7.427265    56App    7.428304    57App    7.430030
     108Ap     7.448066    58App    7.488543   109Ap     7.509088
     110Ap     7.584420   111Ap     7.610085

    Beta Occupied:

       1Ap  -133.552516     2Ap   -91.912143     3Ap   -91.910466
       4Ap   -14.509002     1App  -11.538991     5Ap   -11.538903
       6Ap   -11.538836     7Ap    -8.907867     8Ap    -8.906208
       9Ap    -6.589801    10Ap    -6.588187    11Ap    -6.587725
      12Ap    -6.586030     2App   -6.578104     3App   -6.576746
      13Ap    -1.767815     4App   -0.977055    14Ap    -0.975764
      15Ap    -0.974921    16Ap    -0.886551    17Ap    -0.702175
      18Ap    -0.380480    19Ap    -0.372894     5App   -0.278818
      20Ap    -0.262842

    Beta Virtual:

      21Ap    -0.018011     6App    0.002833    22Ap     0.003201
      23Ap     0.006368    24Ap     0.016840     7App    0.017056
      25Ap     0.017490     8App    0.020735    26Ap     0.021466
      27Ap     0.022452     9App    0.022965    28Ap     0.028539
      29Ap     0.033674    10App    0.041565    30Ap     0.051878
      31Ap     0.055860    11App    0.058254    12App    0.059864
      32Ap     0.062161    13App    0.075391    33Ap     0.075832
      34Ap     0.087874    35Ap     0.106733    36Ap     0.107413
      37Ap     0.126219    14App    0.126702    38Ap     0.128843
      39Ap     0.129814    15App    0.129874    40Ap     0.134940
      16App    0.135403    41Ap     0.152265    42Ap     0.153809
      43Ap     0.165733    17App    0.166098    18App    0.172978
      44Ap     0.175049    19App    0.182622    20App    0.191387
      45Ap     0.198944    46Ap     0.209378    47Ap     0.222223
      21App    0.236176    48Ap     0.250070    49Ap     0.271333
      50Ap     0.313689    51Ap     0.322277    22App    0.350859
      52Ap     0.352607    53Ap     0.362264    54Ap     0.385671
      23App    0.388577    55Ap     0.388761    24App    0.390731
      25App    0.391900    56Ap     0.394246    26App    0.400235
      27App    0.410892    57Ap     0.411963    58Ap     0.432351
      59Ap     0.436016    60Ap     0.444245    28App    0.464165
      29App    0.466726    61Ap     0.469058    30App    0.474044
      62Ap     0.494356    63Ap     0.514181    64Ap     0.530626
      31App    0.696328    65Ap     0.722756    32App    0.735412
      33App    0.738692    66Ap     0.740309    67Ap     0.749987
      68Ap     0.792681    69Ap     0.803889    34App    0.821711
      70Ap     0.834122    71Ap     0.862272    35App    0.878134
      72Ap     0.886336    36App    0.907949    37App    0.910648
      73Ap     0.922534    74Ap     0.938116    75Ap     0.954670
      76Ap     0.980913    77Ap     1.008547    38App    1.025684
      39App    1.051673    78Ap     1.064542    79Ap     1.072201
      40App    1.149946    80Ap     1.166245    81Ap     1.176287
      41App    1.189055    82Ap     1.202491    42App    1.362538
      83Ap     1.381037    84Ap     1.431746    85Ap     1.674964
      43App    2.032309    86Ap     2.044868    44App    2.070994
      87Ap     2.077572    88Ap     2.080705    45App    2.087335
      89Ap     2.164350    46App    2.229642    90Ap     2.271433
      91Ap     2.309105    47App    2.325159    92Ap     2.336247
      93Ap     2.384875    48App    2.414212    94Ap     2.433575
      49App    2.451234    95Ap     2.459226    96Ap     2.486147
      50App    2.496919    51App    2.534148    52App    2.547392
      97Ap     2.563406    53App    2.570508    98Ap     2.605289
      99Ap     2.640484   100Ap     2.683043   101Ap     2.687744
      54App    2.811590   102Ap     2.829209   103Ap     3.833960
     104Ap     4.882769   105Ap     5.743450    55App    7.411752
     106Ap     7.417558   107Ap     7.433910    56App    7.434885
      57App    7.436352   108Ap     7.449204    58App    7.494610
     109Ap     7.509960   110Ap     7.586181   111Ap     7.612104

    Final Occupation by Irrep:
             Ap   App
    DOCC [    20,    5 ]
    SOCC [     0,    1 ]

  @UHF Final Energy: -1394.30652338389541

   => Energetics <=

    Nuclear Repulsion Energy =            161.4568033830785794
    One-Electron Energy =               -2248.0484327143840346
    Two-Electron Energy =                 692.2851059474099884
    Total Energy =                      -1394.3065233838951826

  UHF NO Occupations:
  HONO-2 :   20 Ap 1.9975158
  HONO-1 :    5App 1.9853343
  HONO-0 :    6App 1.0000000
  LUNO+0 :    7App 0.0146657
  LUNO+1 :   21 Ap 0.0024842
  LUNO+2 :   22 Ap 0.0022144
  LUNO+3 :   23 Ap 0.0002915

Computation Completed

Properties will be evaluated at   0.000000,   0.000000,   0.000000 [a0]

Properties computed using the SCF density matrix

  Nuclear Dipole Moment: [e a0]
     X:    -1.7877      Y:     0.0001      Z:     0.0000

  Electronic Dipole Moment: [e a0]
     X:     6.3584      Y:     0.0189      Z:     0.0000

  Dipole Moment: [e a0]
     X:     4.5708      Y:     0.0190      Z:     0.0000     Total:     4.5708

  Dipole Moment: [D]
     X:    11.6177      Y:     0.0484      Z:     0.0000     Total:    11.6178

*** tstop() called on c5-20.compute.lan at Fri Mar  5 14:10:51 2021
Module time:
	user time   =     254.71 seconds =       4.25 minutes
	system time =       3.32 seconds =       0.06 minutes
	total time  =         61 seconds =       1.02 minutes
Total time:
	user time   =     254.71 seconds =       4.25 minutes
	system time =       3.32 seconds =       0.06 minutes
	total time  =         61 seconds =       1.02 minutes
 MINTS: Wrapper to libmints.
   by Justin Turney

   Calculation information:
      Number of threads:                12
      Number of atoms:                   3
      Number of AO shells:              53
      Number of SO shells:              53
      Number of primitives:            287
      Number of atomic orbitals:       199
      Number of basis functions:       169

      Number of irreps:                  2
      Integral cutoff                 0.00e+00
      Number of functions per irrep: [ 111   58 ]

 OEINTS: Overlap, kinetic, potential, dipole, and quadrupole integrals
         stored in file 35.

      Computing two-electron integrals...done
      Computed 50983544 non-zero two-electron integrals.
        Stored in file 33.

*** tstart() called on c5-20.compute.lan
*** at Fri Mar  5 14:12:15 2021

	Wfn Parameters:
	--------------------
	Wavefunction         = CCSD_T
	Number of irreps     = 2
	Number of MOs        = 169
	Number of active MOs = 150
	AO-Basis             = NONE
	Semicanonical        = false
	Reference            = UHF
	Print Level          = 1

	IRREP	# MOs	# FZDC	# DOCC	# SOCC	# VIRT	# FZVR
	-----	-----	------	------	------	------	------
	 Ap	   111	    15	    5	    0	    91	    0
	 App	   58	    4	    1	    1	    52	    0
	Transforming integrals...
	IWL integrals will be deleted.
	(OO|OO)...
	Presorting SO-basis two-electron integrals.
	Sorting File: SO Ints (nn|nn) nbuckets = 1
	Transforming the one-electron integrals and constructing Fock matrices
	Starting AA/AB first half-transformation.
	Sorting AA/AB half-transformed integrals.
	Starting BB first half-transformation.
	Sorting BB half-transformed integrals.
	First half integral transformation complete.
	Starting AA second half-transformation.
	Starting AB second half-transformation.
	Starting BB second half-transformation.
	Two-electron integral transformation complete.
	(OO|OV)...
	Starting AA second half-transformation.
	Starting AB second half-transformation.
	Starting BB second half-transformation.
	Two-electron integral transformation complete.
	(OO|VV)...
	Starting AA second half-transformation.
	Starting AB second half-transformation.
	Starting BB second half-transformation.
	Two-electron integral transformation complete.
	(OV|OO)...
	Starting AA/AB first half-transformation.
	Sorting AA/AB half-transformed integrals.
	Starting BB first half-transformation.
	Sorting BB half-transformed integrals.
	First half integral transformation complete.
	Starting AA second half-transformation.
	Starting AB second half-transformation.
	Starting BB second half-transformation.
	Two-electron integral transformation complete.
	(OV|OV)...
	Starting AA second half-transformation.
	Starting AB second half-transformation.
	Starting BB second half-transformation.
	Two-electron integral transformation complete.
	(OV|VV)...
	Starting AA second half-transformation.
	Starting AB second half-transformation.
	Starting BB second half-transformation.
	Two-electron integral transformation complete.
	(VV|OO)...
	Starting AA/AB first half-transformation.
	Sorting AA/AB half-transformed integrals.
	Starting BB first half-transformation.
	Sorting BB half-transformed integrals.
	First half integral transformation complete.
	Starting AA second half-transformation.
	Starting AB second half-transformation.
	Starting BB second half-transformation.
	Two-electron integral transformation complete.
	(VV|OV)...
	Starting AA second half-transformation.
	Starting AB second half-transformation.
	Starting BB second half-transformation.
	Two-electron integral transformation complete.
	(VV|VV)...
	Starting AA second half-transformation.
	Starting AB second half-transformation.
	Starting BB second half-transformation.
	Two-electron integral transformation complete.
	Frozen core energy     =  -1525.01329042651605

	Size of irrep 0 of <AB|CD> integrals:     29.387 (MW) /    235.098 (MB)
	Size of irrep 1 of <AB|CD> integrals:     22.392 (MW) /    179.135 (MB)
	Total:                                    51.779 (MW) /    414.233 (MB)

	Size of irrep 0 of <ab|cd> integrals:     29.954 (MW) /    239.630 (MB)
	Size of irrep 1 of <ab|cd> integrals:     23.261 (MW) /    186.091 (MB)
	Total:                                    53.215 (MW) /    425.720 (MB)

	Size of irrep 0 of <Ab|Cd> integrals:    121.815 (MW) /    974.523 (MB)
	Size of irrep 1 of <Ab|Cd> integrals:     91.298 (MW) /    730.384 (MB)
	Total:                                   213.113 (MW) /   1704.907 (MB)

	Size of irrep 0 of <IA|BC> integrals:      6.141 (MW) /     49.125 (MB)
	Size of irrep 1 of <IA|BC> integrals:      4.183 (MW) /     33.465 (MB)
	Total:                                    10.324 (MW) /     82.590 (MB)

	Size of irrep 0 of <ia|bc> integrals:      5.634 (MW) /     45.070 (MB)
	Size of irrep 1 of <ia|bc> integrals:      3.434 (MW) /     27.472 (MB)
	Total:                                     9.068 (MW) /     72.542 (MB)

	Size of irrep 0 of <Ia|Bc> integrals:      6.192 (MW) /     49.534 (MB)
	Size of irrep 1 of <Ia|Bc> integrals:      4.271 (MW) /     34.169 (MB)
	Total:                                    10.463 (MW) /     83.703 (MB)

	Size of irrep 0 of <iA|bC> integrals:      5.596 (MW) /     44.766 (MB)
	Size of irrep 1 of <iA|bC> integrals:      3.354 (MW) /     26.830 (MB)
	Total:                                     8.950 (MW) /     71.597 (MB)

	Size of irrep 0 of tIjAb amplitudes:       0.298 (MW) /      2.384 (MB)
	Size of irrep 1 of tIjAb amplitudes:       0.143 (MW) /      1.147 (MB)
	Total:                                     0.441 (MW) /      3.531 (MB)

	Nuclear Rep. energy          =    161.45680338307858
	SCF energy                   =  -1394.30652338389541
	One-electron energy          =    -55.14248595905958
	Two-electron (AA) energy     =      5.99520774356737
	Two-electron (BB) energy     =      4.26593534927897
	Two-electron (AB) energy     =     14.13130652573254
	Two-electron energy          =     24.39244961857887
	Reference energy             =  -1394.30652338391815

*** tstop() called on c5-20.compute.lan at Fri Mar  5 14:14:02 2021
Module time:
	user time   =     146.98 seconds =       2.45 minutes
	system time =      36.91 seconds =       0.62 minutes
	total time  =        107 seconds =       1.78 minutes
Total time:
	user time   =     488.03 seconds =       8.13 minutes
	system time =      41.40 seconds =       0.69 minutes
	total time  =        252 seconds =       4.20 minutes
            **************************
            *                        *
            *        CCENERGY        *
            *                        *
            **************************

    Nuclear Rep. energy (wfn)     =  161.456803383078579
    SCF energy          (wfn)     = -1394.306523383895410
    Reference energy    (file100) = -1394.306523383918147

    Input parameters:
    -----------------
    Wave function   =     CCSD_T
    Reference wfn   =     UHF
    Brueckner       =     No
    Memory (Mbytes) =     46000.0
    Maxiter         =     50
    R_Convergence   =     1.0e-10
    E_Convergence   =     1.0e-10
    Restart         =     Yes
    DIIS            =     Yes
    AO Basis        =     NONE
    ABCD            =     NEW
    Cache Level     =     2
    Cache Type      =     LRU
    Print Level     =     1
    Num. of threads =     12
    # Amps to Print =     10
    Print MP2 Amps? =     No
    Analyze T2 Amps =     No
    Print Pair Ener =     No
    Local CC        =     No
    SCS-MP2         =     False
    SCSN-MP2        =     False
    SCS-CCSD        =     False

MP2 correlation energy -0.3478087527677590
                Solving CC Amplitude Equations
                ------------------------------
  Iter             Energy              RMS        T1Diag      D1Diag    New D1Diag    D2Diag
  ----     ---------------------    ---------   ----------  ----------  ----------   --------
     0        -0.347808752767759    0.000e+00    0.000000    0.000000    0.000000    0.000000
     1        -0.360541648453043    8.733e-02    0.017129    0.000000    0.000000    0.000000
     2        -0.371752019745431    2.789e-02    0.019698    0.000000    0.000000    0.000000
     3        -0.374215676459413    1.357e-02    0.023666    0.000000    0.000000    0.000000
     4        -0.374088519550074    3.756e-03    0.024855    0.000000    0.000000    0.000000
     5        -0.374053147108570    1.551e-03    0.025175    0.000000    0.000000    0.000000
     6        -0.374045365362594    7.734e-04    0.025278    0.000000    0.000000    0.000000
     7        -0.374041730639827    4.818e-04    0.025320    0.000000    0.000000    0.000000
     8        -0.374045417238385    2.940e-04    0.025337    0.000000    0.000000    0.000000
     9        -0.374050744846876    1.565e-04    0.025344    0.000000    0.000000    0.000000
    10        -0.374047661390533    7.780e-05    0.025350    0.000000    0.000000    0.000000
    11        -0.374047675718749    3.195e-05    0.025349    0.000000    0.000000    0.000000
    12        -0.374047106546776    1.588e-05    0.025350    0.000000    0.000000    0.000000
    13        -0.374046915151918    8.458e-06    0.025350    0.000000    0.000000    0.000000
    14        -0.374046988186612    4.845e-06    0.025350    0.000000    0.000000    0.000000
    15        -0.374047005635838    2.975e-06    0.025350    0.000000    0.000000    0.000000
    16        -0.374047006557181    1.541e-06    0.025350    0.000000    0.000000    0.000000

      * MP2 total energy                      = -1394.654332136685980
      * CCSD total energy                     = -1394.680570392671143
      * CCSD(T) total energy                     = -1394.703625838247490
*** Psi4 exiting successfully. Buy a developer a beer!
