                               Psi4 1.4a2.dev191

  ==> Input File <==

--------------------------------------------------------------------------
memory 16 GB

molecule  {
0 1
S
S 1 r1
S 1 r2 2 a1
S 2 r3 1 a2 3 d1
r1 = 2.051
r2 = 2.024
r3 = 2.024
a1 = 105.1
a2 = 105.1
d1 = 180.0
}

set {
reference uks
basis aug-cc-pvtz
g_convergence gau_verytight
dft_spherical_points 590
dft_radial_points 99
}

optimize('wb97x-d')
frequencies('wb97x-d')

--------------------------------------------------------------------------

    Molecular point group: c2h
  Charge       = 0
  Multiplicity = 1
  Basis Set: AUG-CC-PVTZ
    Blend: AUG-CC-PVTZ
  Basis Set: (AUG-CC-PVTZ AUX)
    Blend: AUG-CC-PVTZ-JKFIT
  @DF-UKS Final Energy: -1592.77594521096398
    Total Energy =                      -1592.7759452109637550
    Molecular point group: c2h
  Basis Set: AUG-CC-PVTZ
    Blend: AUG-CC-PVTZ
  Basis Set: (AUG-CC-PVTZ AUX)
    Blend: AUG-CC-PVTZ-JKFIT
  Basis Set: AUG-CC-PVTZ
    Blend: AUG-CC-PVTZ
  Basis Set: (AUG-CC-PVTZ AUX)
    Blend: AUG-CC-PVTZ-JKFIT
  @DF-UKS Final Energy: -1592.78431656565635
    Total Energy =                      -1592.7843165656561268
  Basis Set: AUG-CC-PVTZ
    Blend: AUG-CC-PVTZ
  Basis Set: (AUG-CC-PVTZ AUX)
    Blend: AUG-CC-PVTZ-JKFIT
  Basis Set: AUG-CC-PVTZ
    Blend: AUG-CC-PVTZ
  @DF-UKS Final Energy: -1592.78565955751628
    Total Energy =                      -1592.7856595575162828
  @DF-UKS Final Energy: -1592.78577353274682
    Total Energy =                      -1592.7857735327468163
  @DF-UKS Final Energy: -1592.78578506704253
    Total Energy =                      -1592.7857850670420703
  @DF-UKS Final Energy: -1592.78578550998282
    Total Energy =                      -1592.7857855099828157
  @DF-UKS Final Energy: -1592.78578554541832
    Total Energy =                      -1592.7857855454183209
  @DF-UKS Final Energy: -1592.78578555499053
    Total Energy =                      -1592.7857855549907526
  **** Optimization is complete! (in 8 steps) ****
    Final optimized geometry and variables:
  @DF-UKS Final Energy: -1592.78578555498848
    Total Energy =                      -1592.7857855549884789
  @DF-UKS Final Energy: -1592.78578555498825
    Total Energy =                      -1592.7857855549880242
  @DF-UKS Final Energy: -1592.78578541458592
    Total Energy =                      -1592.7857854145861438
  @DF-UKS Final Energy: -1592.78578540159583
    Total Energy =                      -1592.7857854015956036
  @DF-UKS Final Energy: -1592.78578536551618
    Total Energy =                      -1592.7857853655154940
  @DF-UKS Final Energy: -1592.78578546741164
    Total Energy =                      -1592.7857854674114151
  @DF-UKS Final Energy: -1592.78578544087213
    Total Energy =                      -1592.7857854408723597
  @DF-UKS Final Energy: -1592.78578546284371
    Total Energy =                      -1592.7857854628439327
  @DF-UKS Final Energy: -1592.78578554548335
    Total Energy =                      -1592.7857855454833498
  Basis Set: (AUG-CC-PVTZ AUX)
    Blend: AUG-CC-PVTZ-JKFIT
  Basis Set: AUG-CC-PVTZ
    Blend: AUG-CC-PVTZ
  Basis Set: (AUG-CC-PVTZ AUX)
    Blend: AUG-CC-PVTZ-JKFIT
  @DF-UKS Final Energy: -1592.78578538079250
    Total Energy =                      -1592.7857853807918218
  Basis Set: AUG-CC-PVTZ
    Blend: AUG-CC-PVTZ
  Basis Set: (AUG-CC-PVTZ AUX)
    Blend: AUG-CC-PVTZ-JKFIT
    Molecular point group: cs
  Charge       = 0
  Multiplicity = 1
  Basis Set: AUG-CC-PVTZ
    Blend: AUG-CC-PVTZ
  Basis Set: (AUG-CC-PVTZ AUX)
    Blend: AUG-CC-PVTZ-JKFIT

    Orbital Energies [Eh]
    ---------------------

    Alpha Occupied:

       1Ap   -89.176225     2Ap   -89.176196     3Ap   -89.079647
       4Ap   -89.079627     5Ap    -8.178730     6Ap    -8.178622
       7Ap    -8.088090     8Ap    -8.088061     9Ap    -6.127129
      10Ap    -6.126822     1App   -6.123615     2App   -6.123574
      11Ap    -6.122594    12Ap    -6.122546    13Ap    -6.038662
      14Ap    -6.038636     3App   -6.032406     4App   -6.032376
      15Ap    -6.029128    16Ap    -6.029099    17Ap    -1.004187
      18Ap    -0.919908    19Ap    -0.780098    20Ap    -0.686803
      21Ap    -0.545173    22Ap    -0.516047     5App   -0.506679
      23Ap    -0.448452     6App   -0.428101    24Ap    -0.376326
      25Ap    -0.332320     7App   -0.304129

    Alpha Virtual:

       8App   -0.116247    26Ap    -0.001405    27Ap     0.021018
      28Ap     0.050397    29Ap     0.063794    30Ap     0.072243
      31Ap     0.075334     9App    0.084202    32Ap     0.095973
      33Ap     0.104731    34Ap     0.107136    10App    0.107785
      11App    0.110029    35Ap     0.120786    36Ap     0.136273
      12App    0.136815    37Ap     0.165533    13App    0.175877
      38Ap     0.183240    14App    0.196487    39Ap     0.203235
      40Ap     0.211578    41Ap     0.234315    42Ap     0.253107
      43Ap     0.269384    15App    0.269925    44Ap     0.276420
      16App    0.277443    45Ap     0.287890    17App    0.295938
      46Ap     0.299561    47Ap     0.342121    18App    0.354326
      48Ap     0.360909    49Ap     0.376742    19App    0.384044
      20App    0.386825    50Ap     0.394751    51Ap     0.429951
      52Ap     0.440865    21App    0.447069    22App    0.507555
      53Ap     0.522715    54Ap     0.528392    23App    0.533805
      55Ap     0.549406    24App    0.551145    56Ap     0.553201
      25App    0.564059    57Ap     0.571167    58Ap     0.572364
      26App    0.576009    59Ap     0.579758    60Ap     0.593363
      61Ap     0.605743    27App    0.614795    62Ap     0.616046
      63Ap     0.626833    28App    0.646539    64Ap     0.657958
      29App    0.660851    65Ap     0.666389    66Ap     0.672583
      67Ap     0.687399    30App    0.694844    31App    0.733164
      68Ap     0.739541    32App    0.752215    69Ap     0.765933
      33App    0.780554    34App    0.781408    70Ap     0.795417
      71Ap     0.799772    72Ap     0.822434    73Ap     0.830462
      35App    0.835894    74Ap     0.841676    75Ap     0.855294
      36App    0.903285    76Ap     0.953804    77Ap     0.998027
      37App    1.010627    78Ap     1.022984    38App    1.031732
      39App    1.033650    79Ap     1.054792    80Ap     1.059008
      40App    1.097601    81Ap     1.120190    82Ap     1.142358
      83Ap     1.171682    41App    1.184126    42App    1.195203
      84Ap     1.198168    43App    1.228388    85Ap     1.229414
      44App    1.249295    86Ap     1.259959    87Ap     1.310382
      88Ap     1.388574    89Ap     1.390465    90Ap     1.431127
      91Ap     1.514617    92Ap     1.524896    93Ap     1.788222
      45App    1.793209    46App    1.812538    94Ap     1.832456
      47App    1.851041    95Ap     1.856259    96Ap     1.859038
      48App    1.861936    49App    1.876511    97Ap     1.880030
      98Ap     1.882070    50App    1.922875    99Ap     1.937747
     100Ap     1.959683    51App    1.962783   101Ap     1.968278
      52App    1.988820    53App    2.008260   102Ap     2.013548
     103Ap     2.020637    54App    2.020893    55App    2.044433
     104Ap     2.047258    56App    2.063648    57App    2.068297
     105Ap     2.095649   106Ap     2.107460    58App    2.155116
     107Ap     2.157489   108Ap     2.170674   109Ap     2.181740
      59App    2.185889   110Ap     2.188405    60App    2.222540
     111Ap     2.224757    61App    2.250808   112Ap     2.289665
      62App    2.298062   113Ap     2.307319   114Ap     2.323268
      63App    2.343637   115Ap     2.347629    64App    2.371390
      65App    2.376732   116Ap     2.386756   117Ap     2.420510
     118Ap     2.445252   119Ap     2.482944   120Ap     2.538077
      66App    2.556717    67App    2.648262   121Ap     2.653516
      68App    2.662097   122Ap     2.684788   123Ap     2.724623
     124Ap     2.758138   125Ap     2.760177   126Ap     3.669457
     127Ap     3.709504   128Ap     3.769075   129Ap     5.112185
     130Ap     5.330869   131Ap     5.737436   132Ap     5.804951

    Beta Occupied:

       1Ap   -89.176225     2Ap   -89.176196     3Ap   -89.079647
       4Ap   -89.079627     5Ap    -8.178730     6Ap    -8.178622
       7Ap    -8.088090     8Ap    -8.088061     9Ap    -6.127129
      10Ap    -6.126822     1App   -6.123615     2App   -6.123574
      11Ap    -6.122594    12Ap    -6.122546    13Ap    -6.038662
      14Ap    -6.038636     3App   -6.032406     4App   -6.032376
      15Ap    -6.029128    16Ap    -6.029099    17Ap    -1.004187
      18Ap    -0.919908    19Ap    -0.780098    20Ap    -0.686803
      21Ap    -0.545173    22Ap    -0.516047     5App   -0.506679
      23Ap    -0.448452     6App   -0.428101    24Ap    -0.376326
      25Ap    -0.332320     7App   -0.304129

    Beta Virtual:

       8App   -0.116247    26Ap    -0.001405    27Ap     0.021018
      28Ap     0.050397    29Ap     0.063794    30Ap     0.072243
      31Ap     0.075334     9App    0.084202    32Ap     0.095973
      33Ap     0.104731    34Ap     0.107136    10App    0.107785
      11App    0.110029    35Ap     0.120786    36Ap     0.136273
      12App    0.136815    37Ap     0.165533    13App    0.175877
      38Ap     0.183240    14App    0.196487    39Ap     0.203235
      40Ap     0.211578    41Ap     0.234315    42Ap     0.253107
      43Ap     0.269384    15App    0.269925    44Ap     0.276420
      16App    0.277443    45Ap     0.287890    17App    0.295938
      46Ap     0.299561    47Ap     0.342121    18App    0.354326
      48Ap     0.360909    49Ap     0.376742    19App    0.384044
      20App    0.386825    50Ap     0.394751    51Ap     0.429951
      52Ap     0.440865    21App    0.447069    22App    0.507555
      53Ap     0.522715    54Ap     0.528392    23App    0.533805
      55Ap     0.549406    24App    0.551145    56Ap     0.553201
      25App    0.564059    57Ap     0.571167    58Ap     0.572364
      26App    0.576009    59Ap     0.579758    60Ap     0.593363
      61Ap     0.605743    27App    0.614795    62Ap     0.616046
      63Ap     0.626833    28App    0.646539    64Ap     0.657958
      29App    0.660851    65Ap     0.666389    66Ap     0.672583
      67Ap     0.687399    30App    0.694844    31App    0.733164
      68Ap     0.739541    32App    0.752215    69Ap     0.765933
      33App    0.780554    34App    0.781408    70Ap     0.795417
      71Ap     0.799772    72Ap     0.822434    73Ap     0.830462
      35App    0.835894    74Ap     0.841676    75Ap     0.855294
      36App    0.903285    76Ap     0.953804    77Ap     0.998027
      37App    1.010627    78Ap     1.022984    38App    1.031732
      39App    1.033650    79Ap     1.054792    80Ap     1.059008
      40App    1.097601    81Ap     1.120190    82Ap     1.142358
      83Ap     1.171682    41App    1.184126    42App    1.195203
      84Ap     1.198168    43App    1.228388    85Ap     1.229414
      44App    1.249295    86Ap     1.259959    87Ap     1.310382
      88Ap     1.388574    89Ap     1.390465    90Ap     1.431127
      91Ap     1.514617    92Ap     1.524896    93Ap     1.788222
      45App    1.793209    46App    1.812538    94Ap     1.832456
      47App    1.851041    95Ap     1.856259    96Ap     1.859038
      48App    1.861936    49App    1.876511    97Ap     1.880030
      98Ap     1.882070    50App    1.922875    99Ap     1.937747
     100Ap     1.959683    51App    1.962783   101Ap     1.968278
      52App    1.988820    53App    2.008260   102Ap     2.013548
     103Ap     2.020637    54App    2.020893    55App    2.044433
     104Ap     2.047258    56App    2.063648    57App    2.068297
     105Ap     2.095649   106Ap     2.107460    58App    2.155116
     107Ap     2.157489   108Ap     2.170674   109Ap     2.181740
      59App    2.185889   110Ap     2.188405    60App    2.222540
     111Ap     2.224757    61App    2.250808   112Ap     2.289665
      62App    2.298062   113Ap     2.307319   114Ap     2.323268
      63App    2.343637   115Ap     2.347629    64App    2.371390
      65App    2.376732   116Ap     2.386756   117Ap     2.420510
     118Ap     2.445252   119Ap     2.482944   120Ap     2.538077
      66App    2.556717    67App    2.648262   121Ap     2.653516
      68App    2.662097   122Ap     2.684788   123Ap     2.724623
     124Ap     2.758138   125Ap     2.760177   126Ap     3.669457
     127Ap     3.709504   128Ap     3.769075   129Ap     5.112185
     130Ap     5.330869   131Ap     5.737436   132Ap     5.804951

    Final Occupation by Irrep:
             Ap   App
    DOCC [    25,    7 ]
    SOCC [     0,    0 ]

  @DF-UKS Final Energy: -1592.78578552007207

   => Energetics <=

    Nuclear Repulsion Energy =            319.0193062514469489
    One-Electron Energy =               -2834.2922870178617814
    Two-Electron Energy =                 997.5143317056922569
    DFT Exchange-Correlation Energy =     -75.0266200778704473
    Empirical Dispersion Energy =          -0.0005163814791211
    VV10 Nonlocal Energy =                  0.0000000000000000
    Total Energy =                      -1592.7857855200722952

  UHF NO Occupations:
  HONO-2 :   23 Ap 2.0000000
  HONO-1 :   24 Ap 2.0000000
  HONO-0 :   25 Ap 2.0000000
  LUNO+0 :   26 Ap 0.0000000
  LUNO+1 :   27 Ap 0.0000000
  LUNO+2 :   28 Ap 0.0000000
  LUNO+3 :   29 Ap 0.0000000

Computation Completed

Properties will be evaluated at   0.000000,   0.000000,   0.000000 [a0]

Properties computed using the SCF density matrix

  Nuclear Dipole Moment: [e a0]
     X:     0.0000      Y:     0.0000      Z:     0.0000

  Electronic Dipole Moment: [e a0]
     X:     0.0004      Y:    -0.0008      Z:     0.0000

  Dipole Moment: [e a0]
     X:     0.0004      Y:    -0.0008      Z:     0.0000     Total:     0.0009

  Dipole Moment: [D]
     X:     0.0010      Y:    -0.0021      Z:     0.0000     Total:     0.0024

*** tstop() called on c5-12.compute.lan at Wed Feb 10 11:30:37 2021
Module time:
	user time   =      77.26 seconds =       1.29 minutes
	system time =       0.70 seconds =       0.01 minutes
	total time  =         78 seconds =       1.30 minutes
Total time:
	user time   =    1760.26 seconds =      29.34 minutes
	system time =      16.08 seconds =       0.27 minutes
	total time  =       1820 seconds =      30.33 minutes

*** tstart() called on c5-12.compute.lan
*** at Wed Feb 10 11:30:37 2021

         ------------------------------------------------------------
                                   SCF GRAD
                          Rob Parrish, Justin Turney,
                       Andy Simmonett, and Alex Sokolov
         ------------------------------------------------------------

  ==> Geometry <==

    Molecular point group: cs
    Full point group: Cs

    Geometry (in Angstrom), charge = 0, multiplicity = 1:

       Center              X                  Y                   Z               Mass
    ------------   -----------------  -----------------  -----------------  -----------------
         S            0.000000000000     1.010069806721     0.000000000000    31.972071174400
         S            0.000000000000    -1.010537741959     0.000000000000    31.972071174400
         S           -1.804950454442     1.677643814971     0.000000000000    31.972071174400
         S            1.804950454442    -1.677175879732     0.000000000000    31.972071174400

  Nuclear repulsion =  319.019306251446949

  ==> Basis Set <==

  Basis Set: AUG-CC-PVTZ
    Blend: AUG-CC-PVTZ
    Number of shells: 64
    Number of basis function: 200
    Number of Cartesian functions: 236
    Spherical Harmonics?: true
    Max angular momentum: 3

  ==> DFJKGrad: Density-Fitted SCF Gradients <==

    Gradient:                    1
    J tasked:                  Yes
    K tasked:                  Yes
    wK tasked:                 Yes
    Omega:               2.000E-01
    OpenMP threads:              1
    Integrals threads:           1
    Memory [MiB]:            11444
    Schwarz Cutoff:          0E+00
    Fitting Condition:       1E-10

   => Auxiliary Basis Set <=

  Basis Set: (AUG-CC-PVTZ AUX)
    Blend: AUG-CC-PVTZ-JKFIT
    Number of shells: 168
    Number of basis function: 584
    Number of Cartesian functions: 720
    Spherical Harmonics?: true
    Max angular momentum: 4

  ==> DFT Potential <==

   => Composite Functional: WB97X-D <=

    wB97X-D Hyb-GGA Exchange-Correlation Functional

    J.-D. Chai and M. Head-Gordon, Phys. Chem. Chem. Phys. 10, 6615 (2008)

    Deriv               =              1
    GGA                 =           TRUE
    Meta                =          FALSE

    Exchange Hybrid     =           TRUE
    MP2 Hybrid          =          FALSE

   => Exchange-Correlation Functionals <=

    1.0000   wB97D range-separated functional

   => Exact (HF) Exchange <=

    0.7780            HF,LR [omega = 0.2000]
    0.2220               HF

   => Molecular Quadrature <=

    Radial Scheme          =       TREUTLER
    Pruning Scheme         =           NONE
    Nuclear Scheme         =       TREUTLER

    BS radius alpha        =              1
    Pruning alpha          =              1
    Radial Points          =             99
    Spherical Points       =            590
    Total Points           =         225635
    Total Blocks           =           1822
    Max Points             =            256
    Max Functions          =            200
    Weights Tolerance      =       1.00E-15

  -Total Gradient:
     Atom            X                  Y                   Z
    ------   -----------------  -----------------  -----------------
       1        0.000076480253    -0.000039892101     0.000000000000
       2        0.000070432606    -0.000039761787     0.000000000000
       3       -0.000068285121     0.000045520553     0.000000000000
       4       -0.000078861352     0.000034197692     0.000000000000

*** tstop() called on c5-12.compute.lan at Wed Feb 10 11:31:07 2021
Module time:
	user time   =      29.64 seconds =       0.49 minutes
	system time =       0.28 seconds =       0.00 minutes
	total time  =         30 seconds =       0.50 minutes
Total time:
	user time   =    1789.91 seconds =      29.83 minutes
	system time =      16.36 seconds =       0.27 minutes
	total time  =       1850 seconds =      30.83 minutes

         ----------------------------------------------------------
                                   FINDIF
                     R. A. King and Jonathon Misiewicz
         ---------------------------------------------------------

  Computing second-derivative from gradients using projected,
  symmetry-adapted, cartesian coordinates.

  10 gradients passed in, including the reference geometry.
  Generating complete list of displacements from unique ones.

    Operation 3 takes plus displacements of irrep Au to minus ones.
    Operation 2 takes plus displacements of irrep Bu to minus ones.

-------------------------------------------------------------

  ==> Harmonic Vibrational Analysis <==

  non-mass-weighted Hessian:       Symmetric? True   Hermitian? True   Lin Dep Dim?  6 (0)
  projection of translations (True) and rotations (True) removed 6 degrees of freedom (6)
  total projector:                 Symmetric? True   Hermitian? True   Lin Dep Dim?  6 (6)
  mass-weighted Hessian:           Symmetric? True   Hermitian? True   Lin Dep Dim?  6 (0)
  pre-proj  low-frequency mode:    0.0000i [cm^-1]
  pre-proj  low-frequency mode:    0.0000i [cm^-1]
  pre-proj  low-frequency mode:    0.0000i [cm^-1]
  pre-proj  low-frequency mode:    0.0000  [cm^-1]
  pre-proj  low-frequency mode:    0.0000  [cm^-1]
  pre-proj  low-frequency mode:    0.0000  [cm^-1]
  pre-proj  low-frequency mode:   97.1734  [cm^-1]
  pre-proj  all modes:['0.0000i' '0.0000i' '0.0000i' '0.0000' '0.0000' '0.0000' '97.1734'
 '137.7045' '248.5544' '533.0513' '643.9708' '668.8387']
  projected mass-weighted Hessian: Symmetric? True   Hermitian? True   Lin Dep Dim?  6 (6)
  post-proj low-frequency mode:    0.0000i [cm^-1] (TR)
  post-proj low-frequency mode:    0.0000i [cm^-1] (TR)
  post-proj low-frequency mode:    0.0000i [cm^-1] (TR)
  post-proj low-frequency mode:    0.0000  [cm^-1] (TR)
  post-proj low-frequency mode:    0.0000  [cm^-1] (TR)
  post-proj low-frequency mode:    0.0000  [cm^-1] (TR)
  post-proj low-frequency mode:   97.1734  [cm^-1] (V)
  post-proj  all modes:['0.0000i' '0.0000i' '0.0000i' '0.0000' '0.0000' '0.0000' '97.1734'
 '137.7045' '248.5544' '533.0513' '643.9708' '668.8387']

  Vibration                       7                   8                   9
  Freq [cm^-1]                 97.1734             137.7045            248.5544
  Irrep                           Au                  Bu                  Ag
  Reduced mass [u]             31.9721             31.9721             31.9721
  Force const [mDyne/A]         0.1779              0.3572              1.1638
  Turning point v=0 [a0]        0.1969              0.1654              0.1231
  RMS dev v=0 [a0 u^1/2]        0.7871              0.6612              0.4921
  Char temp [K]                139.8109            198.1261            357.6144
  ----------------------------------------------------------------------------------
      1   S               -0.00  0.00  0.50    0.19  0.46 -0.00   -0.38  0.13  0.00
      2   S                0.00  0.00  0.50    0.19  0.46  0.00    0.38 -0.13 -0.00
      3   S               -0.00 -0.00 -0.50   -0.19 -0.46  0.00   -0.30  0.50 -0.00
      4   S                0.00  0.00 -0.50   -0.19 -0.46  0.00    0.30 -0.50  0.00

  Vibration                       10                  11                  12
  Freq [cm^-1]                 533.0513            643.9708            668.8387
  Irrep                           Ag                  Bu                  Ag
  Reduced mass [u]             31.9721             31.9721             31.9721
  Force const [mDyne/A]         5.3525              7.8118              8.4268
  Turning point v=0 [a0]        0.0841              0.0765              0.0750
  RMS dev v=0 [a0 u^1/2]        0.3361              0.3057              0.3000
  Char temp [K]                766.9422            926.5306            962.3100
  ----------------------------------------------------------------------------------
      1   S                0.22  0.67  0.00    0.46 -0.19 -0.00    0.48 -0.20 -0.00
      2   S               -0.22 -0.67  0.00    0.46 -0.19 -0.00   -0.48  0.20  0.00
      3   S               -0.07 -0.05  0.00   -0.46  0.19 -0.00   -0.45  0.15  0.00
      4   S                0.07  0.05 -0.00   -0.46  0.19  0.00    0.45 -0.15 -0.00

  ==> Thermochemistry Components <==

  Entropy, S
    Electronic S            0.000 [cal/(mol K)]        0.000 [J/(mol K)]       0.00000000 [mEh/K] (multiplicity = 1)
    Translational S        40.451 [cal/(mol K)]      169.248 [J/(mol K)]       0.06446314 [mEh/K] (mol. weight = 127.8883 [u], P = 101325.00 [Pa])
    Rotational S           25.754 [cal/(mol K)]      107.756 [J/(mol K)]       0.04104192 [mEh/K] (symmetry no. = 2)
    Vibrational S           9.392 [cal/(mol K)]       39.297 [J/(mol K)]       0.01496731 [mEh/K]
  Total S                  75.598 [cal/(mol K)]      316.300 [J/(mol K)]       0.12047237 [mEh/K]
  Correction S              0.000 [cal/(mol K)]        0.000 [J/(mol K)]       0.00000000 [mEh/K]

  Constant volume heat capacity, Cv
    Electronic Cv           0.000 [cal/(mol K)]        0.000 [J/(mol K)]       0.00000000 [mEh/K]
    Translational Cv        2.981 [cal/(mol K)]       12.472 [J/(mol K)]       0.00475022 [mEh/K]
    Rotational Cv           2.981 [cal/(mol K)]       12.472 [J/(mol K)]       0.00475022 [mEh/K]
    Vibrational Cv          8.639 [cal/(mol K)]       36.146 [J/(mol K)]       0.01376734 [mEh/K]
  Total Cv                 14.601 [cal/(mol K)]       61.090 [J/(mol K)]       0.02326777 [mEh/K]
  Correction Cv             0.000 [cal/(mol K)]        0.000 [J/(mol K)]       0.00000000 [mEh/K]

  Constant pressure heat capacity, Cp
    Electronic Cp           0.000 [cal/(mol K)]        0.000 [J/(mol K)]       0.00000000 [mEh/K]
    Translational Cp        4.968 [cal/(mol K)]       20.786 [J/(mol K)]       0.00791703 [mEh/K]
    Rotational Cp           2.981 [cal/(mol K)]       12.472 [J/(mol K)]       0.00475022 [mEh/K]
    Vibrational Cp          8.639 [cal/(mol K)]       36.146 [J/(mol K)]       0.01376734 [mEh/K]
  Total Cp                 16.588 [cal/(mol K)]       69.404 [J/(mol K)]       0.02643458 [mEh/K]
  Correction Cp             0.000 [cal/(mol K)]        0.000 [J/(mol K)]       0.00000000 [mEh/K]

  ==> Thermochemistry Energy Analysis <==

  Raw electronic energy, E0
  Total E0, Electronic energy at well bottom at 0 [K]                -1592.78578555 [Eh]

  Zero-point energy, ZPE_vib = Sum_i nu_i / 2
    Electronic ZPE          0.000 [kcal/mol]        0.000 [kJ/mol]       0.00000000 [Eh]
    Translational ZPE       0.000 [kcal/mol]        0.000 [kJ/mol]       0.00000000 [Eh]
    Rotational ZPE          0.000 [kcal/mol]        0.000 [kJ/mol]       0.00000000 [Eh]
    Vibrational ZPE         3.330 [kcal/mol]       13.932 [kJ/mol]       0.00530652 [Eh]        1164.647 [cm^-1]
  Correction ZPE            3.330 [kcal/mol]       13.932 [kJ/mol]       0.00530652 [Eh]        1164.647 [cm^-1]
  Total ZPE, Electronic energy at 0 [K]                              -1592.78047903 [Eh]

  Thermal Energy, E (includes ZPE)
    Electronic E            0.000 [kcal/mol]        0.000 [kJ/mol]       0.00000000 [Eh]
    Translational E         0.889 [kcal/mol]        3.718 [kJ/mol]       0.00141628 [Eh]
    Rotational E            0.889 [kcal/mol]        3.718 [kJ/mol]       0.00141628 [Eh]
    Vibrational E           4.809 [kcal/mol]       20.122 [kJ/mol]       0.00766397 [Eh]
  Correction E              6.587 [kcal/mol]       27.559 [kJ/mol]       0.01049652 [Eh]
  Total E, Electronic energy at  298.15 [K]                          -1592.77528903 [Eh]

  Enthalpy, H_trans = E_trans + k_B * T
    Electronic H            0.000 [kcal/mol]        0.000 [kJ/mol]       0.00000000 [Eh]
    Translational H         1.481 [kcal/mol]        6.197 [kJ/mol]       0.00236046 [Eh]
    Rotational H            0.889 [kcal/mol]        3.718 [kJ/mol]       0.00141628 [Eh]
    Vibrational H           4.809 [kcal/mol]       20.122 [kJ/mol]       0.00766397 [Eh]
  Correction H              7.179 [kcal/mol]       30.038 [kJ/mol]       0.01144071 [Eh]
  Total H, Enthalpy at  298.15 [K]                                   -1592.77434485 [Eh]

  Gibbs free energy, G = H - T * S
    Electronic G            0.000 [kcal/mol]        0.000 [kJ/mol]       0.00000000 [Eh]
    Translational G       -10.579 [kcal/mol]      -44.264 [kJ/mol]      -0.01685922 [Eh]
    Rotational G           -6.790 [kcal/mol]      -28.409 [kJ/mol]      -0.01082037 [Eh]
    Vibrational G           2.009 [kcal/mol]        8.405 [kJ/mol]       0.00320147 [Eh]
  Correction G            -15.360 [kcal/mol]      -64.267 [kJ/mol]      -0.02447813 [Eh]
  Total G, Free enthalpy at  298.15 [K]                              -1592.81026368 [Eh]

*** Psi4 exiting successfully. Buy a developer a beer!
