                               Psi4 1.3.2 release

  ==> Input File <==

--------------------------------------------------------------------------
memory 46 GB

basis jerome {
assign pot
assign S aug-cc-pV(T+d)Z

[pot]
spherical
****
 K  0
 S 23 1.00
    2.709796E+07     4.136110E-07
    3.592856E+06     3.860330E-06
    7.222638E+05     2.394640E-05
    1.833976E+05     1.157540E-04
    5.464812E+04     4.697010E-04
    1.830913E+04     1.673720E-03
    6.712501E+03     5.370450E-03
    2.643719E+03     1.572510E-02
    1.103835E+03     4.193360E-02
    4.836777E+02     9.987620E-02
    2.206245E+02     2.019680E-01
    1.041117E+02     3.146270E-01
    5.052749E+01     3.107540E-01
    2.485247E+01     1.421920E-01
    1.128102E+01     1.658490E-02
    5.510166E+00    -2.759760E-04
    2.706914E+00     5.158310E-04
    1.122807E+00    -2.268950E-04
    5.236385E-01     6.652980E-05
    2.355180E-01    -3.685150E-05
    4.157977E-02     1.925250E-05
    2.555456E-02    -2.108420E-05
    1.471495E-02     7.044600E-06
 S 23 1.00
    2.709796E+07    -1.188290E-07
    3.592856E+06    -1.108550E-06
    7.222638E+05    -6.881230E-06
    1.833976E+05    -3.324150E-05
    5.464812E+04    -1.350850E-04
    1.830913E+04    -4.814570E-04
    6.712501E+03    -1.552620E-03
    2.643719E+03    -4.578330E-03
    1.103835E+03    -1.247930E-02
    4.836777E+02    -3.094650E-02
    2.206245E+02    -6.855530E-02
    1.041117E+02    -1.268300E-01
    5.052749E+01    -1.745020E-01
    2.485247E+01    -9.089560E-02
    1.128102E+01     2.506960E-01
    5.510166E+00     5.589630E-01
    2.706914E+00     3.284370E-01
    1.122807E+00     3.392170E-02
    5.236385E-01    -2.100280E-03
    2.355180E-01     1.383960E-03
    4.157977E-02    -5.315630E-04
    2.555456E-02     5.770310E-04
    1.471495E-02    -1.931440E-04
 S 23 1.00
    2.709796E+07     3.917470E-08
    3.592856E+06     3.650640E-07
    7.222638E+05     2.269460E-06
    1.833976E+05     1.094290E-05
    5.464812E+04     4.457360E-05
    1.830913E+04     1.584480E-04
    6.712501E+03     5.128440E-04
    2.643719E+03     1.507690E-03
    1.103835E+03     4.136940E-03
    4.836777E+02     1.024690E-02
    2.206245E+02     2.306520E-02
    1.041117E+02     4.308900E-02
    5.052749E+01     6.238120E-02
    2.485247E+01     3.270420E-02
    1.128102E+01    -1.021980E-01
    5.510166E+00    -3.317970E-01
    2.706914E+00    -3.030100E-01
    1.122807E+00     3.098410E-01
    5.236385E-01     6.732700E-01
    2.355180E-01     2.812200E-01
    4.157977E-02     9.376240E-03
    2.555456E-02    -6.955720E-03
    1.471495E-02     2.069460E-03
 S 23 1.00
    2.709796E+07    -7.564440E-09
    3.592856E+06    -7.055390E-08
    7.222638E+05    -4.380820E-07
    1.833976E+05    -2.115540E-06
    5.464812E+04    -8.601300E-06
    1.830913E+04    -3.064440E-05
    6.712501E+03    -9.892550E-05
    2.643719E+03    -2.917760E-04
    1.103835E+03    -7.977860E-04
    4.836777E+02    -1.985820E-03
    2.206245E+02    -4.449740E-03
    1.041117E+02    -8.390260E-03
    5.052749E+01    -1.206000E-02
    2.485247E+01    -6.568410E-03
    1.128102E+01     2.061430E-02
    5.510166E+00     6.770060E-02
    2.706914E+00     6.639570E-02
    1.122807E+00    -8.237770E-02
    5.236385E-01    -1.727150E-01
    2.355180E-01    -2.310290E-01
    4.157977E-02     5.090040E-01
    2.555456E-02     3.472180E-01
    1.471495E-02     2.809620E-01
 S 1 1.00
    2.555456E-02     1.000000E+00
 S 1 1.00
    1.471495E-02     1.000000E+00
 S 1 1.00
    8.470000E-03     1.000000E+00
 P 16 1.00
    9.533309E+03     4.212010E-05
    1.852081E+03     5.068300E-04
    5.464251E+02     3.311700E-03
    1.966947E+02     1.536840E-02
    7.964112E+01     5.457060E-02
    3.488324E+01     1.473880E-01
    1.604479E+01     2.879240E-01
    7.575632E+00     3.750810E-01
    3.672548E+00     2.545160E-01
    1.771130E+00     6.059280E-02
    8.515199E-01     2.508370E-03
    4.016017E-01     6.688870E-04
    1.851933E-01    -1.486150E-04
    5.523390E-02     4.936010E-05
    2.431085E-02    -3.513850E-05
    1.080339E-02     1.171450E-05
 P 16 1.00
    9.533309E+03    -1.280760E-05
    1.852081E+03    -1.547870E-04
    5.464251E+02    -1.010940E-03
    1.966947E+02    -4.738330E-03
    7.964112E+01    -1.703260E-02
    3.488324E+01    -4.754130E-02
    1.604479E+01    -9.560810E-02
    7.575632E+00    -1.337000E-01
    3.672548E+00    -7.425060E-02
    1.771130E+00     1.646810E-01
    8.515199E-01     4.057630E-01
    4.016017E-01     4.113600E-01
    1.851933E-01     1.734240E-01
    5.523390E-02     1.253640E-02
    2.431085E-02    -3.267140E-03
    1.080339E-02     1.039680E-03
 P 16 1.00
    9.533309E+03     1.764010E-06
    1.852081E+03     2.124880E-05
    5.464251E+02     1.392500E-04
    1.966947E+02     6.509140E-04
    7.964112E+01     2.349940E-03
    3.488324E+01     6.547470E-03
    1.604479E+01     1.326270E-02
    7.575632E+00     1.848520E-02
    3.672548E+00     1.025530E-02
    1.771130E+00    -2.652150E-02
    8.515199E-01    -6.086460E-02
    4.016017E-01    -7.474220E-02
    1.851933E-01    -4.870880E-02
    5.523390E-02     2.245720E-01
    2.431085E-02     5.839280E-01
    1.080339E-02     2.980960E-01
 P 1 1.00
    5.523390E-02     1.000000E+00
 P 1 1.00
    1.080339E-02     1.000000E+00
 P 1 1.00
    4.800000E-03     1.000000E+00
 D 6 1.00
    5.670903E+00     8.285900E-03
    1.459042E+00     2.332530E-02
    5.431827E-01     4.878080E-02
    1.346875E-01     7.349020E-02
    5.516013E-02     2.387630E-01
    1.501876E-02     8.253200E-01
 D 1 1.00
    5.516013E-02     1.000000E+00
 D 1 1.00
    1.501876E-02     1.000000E+00
 D 1 1.00
    6.010000E-03     1.000000E+00
 F 1 1.00
    8.493750E-02     1.000000E+00
 F 1 1.00
    3.398000E-02     1.000000E+00
 ****
}

molecule  {
0 2
S   -1.177989063900    1.029751448300    0.000000000000
S   -1.177271402700   -1.029431459300    0.000000000000
K    1.932633264700   -0.000262570300    0.000000000000
}
set {
basis jerome
reference uhf
g_convergence gau_verytight
e_convergence 10
scf_type pk
freeze_core true
geom_maxiter 100
}

set ccenergy {
e_convergence 10
r_convergence 10
}

e = energy('ccsd(t)')

print_out('Stephenergy {}'.format(e))

--------------------------------------------------------------------------

    Molecular point group: cs

    Geometry (in Angstrom), charge = 0, multiplicity = 2:

       Center              X                  Y                   Z               Mass
    ------------   -----------------  -----------------  -----------------  -----------------
         S           -1.177989063893     1.029751448310     0.000000000000    31.972071174400
         S           -1.177271402693    -1.029431459290     0.000000000000    31.972071174400
         K            1.932633264707    -0.000262570290     0.000000000000    38.963706486400

  Charge       = 0
  Multiplicity = 2
  Basis Set: JEROME
    Blend: AUG-CC-PV(T+D)Z + POT

    Orbital Energies [Eh]
    ---------------------

    Alpha Occupied:

       1Ap  -133.556246     2Ap   -91.906529     3Ap   -91.906483
       4Ap   -14.512595     1App  -11.542603     5Ap   -11.542513
       6Ap   -11.542445     7Ap    -8.904368     8Ap    -8.904182
       2App   -6.593345     3App   -6.593288     9Ap    -6.583309
      10Ap    -6.582903    11Ap    -6.581714    12Ap    -6.581665
      13Ap    -1.770882     4App   -0.980064    14Ap    -0.979944
      15Ap    -0.978813    16Ap    -0.948650    17Ap    -0.756951
       5App   -0.417029    18Ap    -0.406295    19Ap    -0.389423
       6App   -0.295442    20Ap    -0.260475

    Alpha Virtual:

      21Ap    -0.019044     7App    0.002444    22Ap     0.002898
      23Ap     0.006003    24Ap     0.016620     8App    0.017221
      25Ap     0.017372     9App    0.020257    26Ap     0.021165
      27Ap     0.022386    10App    0.022812    28Ap     0.028640
      29Ap     0.033255    30Ap     0.051394    11App    0.051537
      31Ap     0.055573    12App    0.059001    32Ap     0.062049
      13App    0.074241    33Ap     0.075123    34Ap     0.088271
      35Ap     0.105536    36Ap     0.109074    37Ap     0.125940
      14App    0.126099    38Ap     0.128689    39Ap     0.129347
      15App    0.129770    16App    0.133420    40Ap     0.133936
      41Ap     0.151011    42Ap     0.153489    17App    0.153531
      18App    0.167027    43Ap     0.170801    44Ap     0.175382
      19App    0.179048    20App    0.187888    45Ap     0.208323
      46Ap     0.209055    47Ap     0.223019    21App    0.234552
      48Ap     0.247394    49Ap     0.269491    50Ap     0.311767
      51Ap     0.314160    22App    0.337363    52Ap     0.351077
      53Ap     0.359216    23App    0.377614    24App    0.383127
      54Ap     0.384825    25App    0.387892    55Ap     0.389828
      56Ap     0.393216    26App    0.396442    57Ap     0.406807
      27App    0.409126    58Ap     0.430342    59Ap     0.432273
      60Ap     0.441054    28App    0.452493    29App    0.455909
      61Ap     0.466485    30App    0.468186    62Ap     0.489881
      63Ap     0.517537    64Ap     0.537803    31App    0.668713
      32App    0.701988    65Ap     0.707302    33App    0.711655
      66Ap     0.729821    67Ap     0.743170    68Ap     0.783677
      34App    0.799993    69Ap     0.817011    70Ap     0.817442
      35App    0.851353    71Ap     0.854518    72Ap     0.870636
      36App    0.893943    73Ap     0.910646    37App    0.915655
      74Ap     0.950273    75Ap     0.951896    76Ap     0.966409
      38App    1.013802    77Ap     1.022337    39App    1.050287
      78Ap     1.057013    79Ap     1.082192    40App    1.164259
      80Ap     1.200446    81Ap     1.202638    41App    1.204405
      82Ap     1.223587    42App    1.364834    83Ap     1.396743
      84Ap     1.467941    85Ap     1.678866    43App    2.031428
      86Ap     2.035855    44App    2.065642    87Ap     2.065996
      45App    2.079484    88Ap     2.096825    89Ap     2.126565
      46App    2.213570    90Ap     2.280283    47App    2.284699
      91Ap     2.295034    92Ap     2.309749    93Ap     2.368144
      48App    2.373550    94Ap     2.412284    49App    2.421196
      95Ap     2.451316    96Ap     2.474443    50App    2.486922
      51App    2.506503    52App    2.568350    97Ap     2.586995
      53App    2.590195    98Ap     2.674971    99Ap     2.684967
     100Ap     2.714127   101Ap     2.749970    54App    2.879513
     102Ap     2.909807   103Ap     4.009154   104Ap     4.981080
     105Ap     5.754313    55App    7.416976   106Ap     7.419581
     107Ap     7.435864    56App    7.436545    57App    7.439288
     108Ap     7.461490    58App    7.512188   109Ap     7.535932
     110Ap     7.603244   111Ap     7.605161

    Beta Occupied:

       1Ap  -133.556270     2Ap   -91.900960     3Ap   -91.900919
       4Ap   -14.512628     1App  -11.542639     5Ap   -11.542550
       6Ap   -11.542478     7Ap    -8.898317     8Ap    -8.898094
       9Ap    -6.580625    10Ap    -6.580206    11Ap    -6.578195
      12Ap    -6.578150     2App   -6.568950     3App   -6.568902
      13Ap    -1.771054     4App   -0.980235    14Ap    -0.978967
      15Ap    -0.978133    16Ap    -0.911946    17Ap    -0.686435
      18Ap    -0.390005    19Ap    -0.380989     5App   -0.293579
      20Ap    -0.247541

    Beta Virtual:

      21Ap    -0.019052     6App    0.002473    22Ap     0.002911
      23Ap     0.005993    24Ap     0.016616     7App    0.017051
      25Ap     0.017373     8App    0.020294    26Ap     0.021185
      27Ap     0.022443     9App    0.022908    28Ap     0.028643
      29Ap     0.033172    10App    0.047292    30Ap     0.051365
      31Ap     0.055840    11App    0.059446    32Ap     0.062019
      12App    0.065729    13App    0.074441    33Ap     0.075329
      34Ap     0.087973    35Ap     0.105318    36Ap     0.110683
      37Ap     0.126153    14App    0.126227    38Ap     0.128671
      15App    0.129713    39Ap     0.130209    40Ap     0.133990
      16App    0.135240    41Ap     0.150821    42Ap     0.153822
      17App    0.165791    18App    0.171568    43Ap     0.172210
      44Ap     0.175043    19App    0.183789    20App    0.188838
      45Ap     0.208297    46Ap     0.214256    47Ap     0.226231
      21App    0.234854    48Ap     0.248091    49Ap     0.268755
      50Ap     0.317170    51Ap     0.318561    52Ap     0.352013
      22App    0.356942    53Ap     0.363761    54Ap     0.385143
      23App    0.386141    24App    0.390181    25App    0.391431
      55Ap     0.393189    56Ap     0.393948    26App    0.398154
      57Ap     0.408958    27App    0.409261    58Ap     0.432292
      59Ap     0.436002    60Ap     0.443767    28App    0.461746
      29App    0.469511    61Ap     0.471995    30App    0.476878
      62Ap     0.490852    63Ap     0.521035    64Ap     0.538670
      31App    0.686669    65Ap     0.715057    66Ap     0.735665
      32App    0.739647    33App    0.742245    67Ap     0.746345
      68Ap     0.794924    34App    0.816806    69Ap     0.818044
      70Ap     0.833092    71Ap     0.866250    35App    0.885856
      72Ap     0.894908    73Ap     0.917316    36App    0.922695
      37App    0.926792    74Ap     0.955591    75Ap     0.963286
      76Ap     0.969442    38App    1.026290    77Ap     1.033317
      78Ap     1.058462    39App    1.060962    79Ap     1.088588
      40App    1.176440    80Ap     1.200218    41App    1.211017
      81Ap     1.212555    82Ap     1.225385    42App    1.381162
      83Ap     1.398807    84Ap     1.481098    85Ap     1.694088
      43App    2.046438    86Ap     2.050525    44App    2.080536
      87Ap     2.080937    45App    2.095342    88Ap     2.098918
      89Ap     2.128899    46App    2.235923    90Ap     2.285174
      91Ap     2.297216    47App    2.301607    92Ap     2.312385
      93Ap     2.380899    48App    2.386081    94Ap     2.424497
      49App    2.453048    95Ap     2.462458    96Ap     2.496730
      50App    2.509767    51App    2.533816    52App    2.592243
      97Ap     2.603226    53App    2.606755    98Ap     2.680323
      99Ap     2.689338   100Ap     2.718658   101Ap     2.755822
      54App    2.900542   102Ap     2.912445   103Ap     4.012552
     104Ap     4.992212   105Ap     5.764617    55App    7.423133
     106Ap     7.425906   107Ap     7.442353    56App    7.443041
      57App    7.445317   108Ap     7.462524    58App    7.518126
     109Ap     7.536804   110Ap     7.605094   111Ap     7.607157

    Final Occupation by Irrep:
             Ap   App
    DOCC [    20,    5 ]
    SOCC [     0,    1 ]

  @UHF Final Energy: -1394.31593932315536

   => Energetics <=

    Nuclear Repulsion Energy =            163.9916566445184856
    One-Electron Energy =               -2253.2282715898390961
    Two-Electron Energy =                 694.9206756221651631
    Total Energy =                      -1394.3159393231553622

  UHF NO Occupations:
  HONO-2 :   20 Ap 1.9974797
  HONO-1 :    5App 1.9871908
  HONO-0 :    6App 1.0000000
  LUNO+0 :    7App 0.0128092
  LUNO+1 :   21 Ap 0.0025203
  LUNO+2 :   22 Ap 0.0022718
  LUNO+3 :   23 Ap 0.0003065

Computation Completed

Properties will be evaluated at   0.000000,   0.000000,   0.000000 [a0]

Properties computed using the SCF density matrix

  Nuclear Dipole Moment: [e a0]
     X:    -1.8220      Y:     0.0002      Z:     0.0000

  Electronic Dipole Moment: [e a0]
     X:     6.5114      Y:    -0.0003      Z:     0.0000

  Dipole Moment: [e a0]
     X:     4.6894      Y:    -0.0001      Z:     0.0000     Total:     4.6894

  Dipole Moment: [D]
     X:    11.9193      Y:    -0.0002      Z:     0.0000     Total:    11.9193

*** tstop() called on c4-21.compute.lan at Fri Mar  5 14:29:57 2021
Module time:
	user time   =     244.10 seconds =       4.07 minutes
	system time =       1.65 seconds =       0.03 minutes
	total time  =         63 seconds =       1.05 minutes
Total time:
	user time   =     244.10 seconds =       4.07 minutes
	system time =       1.65 seconds =       0.03 minutes
	total time  =         63 seconds =       1.05 minutes
 MINTS: Wrapper to libmints.
   by Justin Turney

   Calculation information:
      Number of threads:                12
      Number of atoms:                   3
      Number of AO shells:              53
      Number of SO shells:              53
      Number of primitives:            287
      Number of atomic orbitals:       199
      Number of basis functions:       169

      Number of irreps:                  2
      Integral cutoff                 0.00e+00
      Number of functions per irrep: [ 111   58 ]

 OEINTS: Overlap, kinetic, potential, dipole, and quadrupole integrals
         stored in file 35.

      Computing two-electron integrals...done
      Computed 51008915 non-zero two-electron integrals.
        Stored in file 33.

*** tstart() called on c4-21.compute.lan
*** at Fri Mar  5 14:31:42 2021

	Wfn Parameters:
	--------------------
	Wavefunction         = CCSD_T
	Number of irreps     = 2
	Number of MOs        = 169
	Number of active MOs = 150
	AO-Basis             = NONE
	Semicanonical        = false
	Reference            = UHF
	Print Level          = 1

	IRREP	# MOs	# FZDC	# DOCC	# SOCC	# VIRT	# FZVR
	-----	-----	------	------	------	------	------
	 Ap	   111	    15	    5	    0	    91	    0
	 App	   58	    4	    1	    1	    52	    0
	Transforming integrals...
	IWL integrals will be deleted.
	(OO|OO)...
	Presorting SO-basis two-electron integrals.
	Sorting File: SO Ints (nn|nn) nbuckets = 1
	Transforming the one-electron integrals and constructing Fock matrices
	Starting AA/AB first half-transformation.
	Sorting AA/AB half-transformed integrals.
	Starting BB first half-transformation.
	Sorting BB half-transformed integrals.
	First half integral transformation complete.
	Starting AA second half-transformation.
	Starting AB second half-transformation.
	Starting BB second half-transformation.
	Two-electron integral transformation complete.
	(OO|OV)...
	Starting AA second half-transformation.
	Starting AB second half-transformation.
	Starting BB second half-transformation.
	Two-electron integral transformation complete.
	(OO|VV)...
	Starting AA second half-transformation.
	Starting AB second half-transformation.
	Starting BB second half-transformation.
	Two-electron integral transformation complete.
	(OV|OO)...
	Starting AA/AB first half-transformation.
	Sorting AA/AB half-transformed integrals.
	Starting BB first half-transformation.
	Sorting BB half-transformed integrals.
	First half integral transformation complete.
	Starting AA second half-transformation.
	Starting AB second half-transformation.
	Starting BB second half-transformation.
	Two-electron integral transformation complete.
	(OV|OV)...
	Starting AA second half-transformation.
	Starting AB second half-transformation.
	Starting BB second half-transformation.
	Two-electron integral transformation complete.
	(OV|VV)...
	Starting AA second half-transformation.
	Starting AB second half-transformation.
	Starting BB second half-transformation.
	Two-electron integral transformation complete.
	(VV|OO)...
	Starting AA/AB first half-transformation.
	Sorting AA/AB half-transformed integrals.
	Starting BB first half-transformation.
	Sorting BB half-transformed integrals.
	First half integral transformation complete.
	Starting AA second half-transformation.
	Starting AB second half-transformation.
	Starting BB second half-transformation.
	Two-electron integral transformation complete.
	(VV|OV)...
	Starting AA second half-transformation.
	Starting AB second half-transformation.
	Starting BB second half-transformation.
	Two-electron integral transformation complete.
	(VV|VV)...
	Starting AA second half-transformation.
	Starting AB second half-transformation.
	Starting BB second half-transformation.
	Two-electron integral transformation complete.
	Frozen core energy     =  -1527.22237688813402

	Size of irrep 0 of <AB|CD> integrals:     29.387 (MW) /    235.098 (MB)
	Size of irrep 1 of <AB|CD> integrals:     22.392 (MW) /    179.135 (MB)
	Total:                                    51.779 (MW) /    414.233 (MB)

	Size of irrep 0 of <ab|cd> integrals:     29.954 (MW) /    239.630 (MB)
	Size of irrep 1 of <ab|cd> integrals:     23.261 (MW) /    186.091 (MB)
	Total:                                    53.215 (MW) /    425.720 (MB)

	Size of irrep 0 of <Ab|Cd> integrals:    121.815 (MW) /    974.523 (MB)
	Size of irrep 1 of <Ab|Cd> integrals:     91.298 (MW) /    730.384 (MB)
	Total:                                   213.113 (MW) /   1704.907 (MB)

	Size of irrep 0 of <IA|BC> integrals:      6.141 (MW) /     49.125 (MB)
	Size of irrep 1 of <IA|BC> integrals:      4.183 (MW) /     33.465 (MB)
	Total:                                    10.324 (MW) /     82.590 (MB)

	Size of irrep 0 of <ia|bc> integrals:      5.634 (MW) /     45.070 (MB)
	Size of irrep 1 of <ia|bc> integrals:      3.434 (MW) /     27.472 (MB)
	Total:                                     9.068 (MW) /     72.542 (MB)

	Size of irrep 0 of <Ia|Bc> integrals:      6.192 (MW) /     49.534 (MB)
	Size of irrep 1 of <Ia|Bc> integrals:      4.271 (MW) /     34.169 (MB)
	Total:                                    10.463 (MW) /     83.703 (MB)

	Size of irrep 0 of <iA|bC> integrals:      5.596 (MW) /     44.766 (MB)
	Size of irrep 1 of <iA|bC> integrals:      3.354 (MW) /     26.830 (MB)
	Total:                                     8.950 (MW) /     71.597 (MB)

	Size of irrep 0 of tIjAb amplitudes:       0.298 (MW) /      2.384 (MB)
	Size of irrep 1 of tIjAb amplitudes:       0.143 (MW) /      1.147 (MB)
	Total:                                     0.441 (MW) /      3.531 (MB)

	Nuclear Rep. energy          =    163.99165664451849
	SCF energy                   =  -1394.31593932315536
	One-electron energy          =    -55.78567696215480
	Two-electron (AA) energy     =      6.05431792735209
	Two-electron (BB) energy     =      4.35709620775218
	Two-electron (AB) energy     =     14.28904374747737
	Two-electron energy          =     24.70045788258164
	Reference energy             =  -1394.31593932318856

*** tstop() called on c4-21.compute.lan at Fri Mar  5 14:33:20 2021
Module time:
	user time   =     191.70 seconds =       3.19 minutes
	system time =      33.61 seconds =       0.56 minutes
	total time  =         98 seconds =       1.63 minutes
Total time:
	user time   =     544.09 seconds =       9.07 minutes
	system time =      36.82 seconds =       0.61 minutes
	total time  =        266 seconds =       4.43 minutes
            **************************
            *                        *
            *        CCENERGY        *
            *                        *
            **************************

    Nuclear Rep. energy (wfn)     =  163.991656644518486
    SCF energy          (wfn)     = -1394.315939323155362
    Reference energy    (file100) = -1394.315939323188559

    Input parameters:
    -----------------
    Wave function   =     CCSD_T
    Reference wfn   =     UHF
    Brueckner       =     No
    Memory (Mbytes) =     46000.0
    Maxiter         =     50
    R_Convergence   =     1.0e-10
    E_Convergence   =     1.0e-10
    Restart         =     Yes
    DIIS            =     Yes
    AO Basis        =     NONE
    ABCD            =     NEW
    Cache Level     =     2
    Cache Type      =     LRU
    Print Level     =     1
    Num. of threads =     12
    # Amps to Print =     10
    Print MP2 Amps? =     No
    Analyze T2 Amps =     No
    Print Pair Ener =     No
    Local CC        =     No
    SCS-MP2         =     False
    SCSN-MP2        =     False
    SCS-CCSD        =     False

MP2 correlation energy -0.3425719880553418
                Solving CC Amplitude Equations
                ------------------------------
  Iter             Energy              RMS        T1Diag      D1Diag    New D1Diag    D2Diag
  ----     ---------------------    ---------   ----------  ----------  ----------   --------
     0        -0.342571988055342    0.000e+00    0.000000    0.000000    0.000000    0.000000
     1        -0.355921072745664    8.125e-02    0.015692    0.000000    0.000000    0.000000
     2        -0.366355030254101    2.551e-02    0.018311    0.000000    0.000000    0.000000
     3        -0.368453250947660    1.205e-02    0.021753    0.000000    0.000000    0.000000
     4        -0.368341408087187    3.335e-03    0.022798    0.000000    0.000000    0.000000
     5        -0.368308406355900    1.364e-03    0.023067    0.000000    0.000000    0.000000
     6        -0.368302404118472    5.884e-04    0.023150    0.000000    0.000000    0.000000
     7        -0.368299302466617    2.960e-04    0.023176    0.000000    0.000000    0.000000
     8        -0.368300397986641    1.589e-04    0.023181    0.000000    0.000000    0.000000
     9        -0.368303832706626    8.964e-05    0.023182    0.000000    0.000000    0.000000
    10        -0.368302458534018    4.774e-05    0.023183    0.000000    0.000000    0.000000
    11        -0.368302294311835    2.072e-05    0.023183    0.000000    0.000000    0.000000
    12        -0.368301952784180    1.003e-05    0.023183    0.000000    0.000000    0.000000
    13        -0.368301791048869    5.005e-06    0.023183    0.000000    0.000000    0.000000
    14        -0.368301788138248    2.732e-06    0.023183    0.000000    0.000000    0.000000
    15        -0.368301792736111    1.693e-06    0.023183    0.000000    0.000000    0.000000
    16        -0.368301793043822    9.323e-07    0.023183    0.000000    0.000000    0.000000

      * MP2 total energy                      = -1394.658511311243956
      * CCSD total energy                     = -1394.684241120032311
      * CCSD(T) total energy                     = -1394.706007019681692
*** Psi4 exiting successfully. Buy a developer a beer!
