                               Psi4 1.4a2.dev191

  ==> Input File <==

--------------------------------------------------------------------------
memory 16 GB

molecule  {
-1 2
S
S 1 r1
S 1 r2 2 a1
S 2 r3 1 a2 3 d1
r1 = 2.051
r2 = 2.024
r3 = 2.024
a1 = 105.1
a2 = 105.1
d1 = 180.0
}

set {
reference uks
basis aug-cc-pvtz
g_convergence gau_verytight
dft_spherical_points 590
dft_radial_points 99
}

optimize('wb97m-v')
frequencies('wb97m-v')

--------------------------------------------------------------------------

    Molecular point group: c2h
  Charge       = -1
  Multiplicity = 2
  Basis Set: AUG-CC-PVTZ
    Blend: AUG-CC-PVTZ
  Basis Set: (AUG-CC-PVTZ AUX)
    Blend: AUG-CC-PVTZ-JKFIT
  @DF-UKS Final Energy: -1592.84034440330151
    Total Energy =                      -1592.8403444033010601
    Molecular point group: c2h
  Basis Set: AUG-CC-PVTZ
    Blend: AUG-CC-PVTZ
  Basis Set: (AUG-CC-PVTZ AUX)
    Blend: AUG-CC-PVTZ-JKFIT
  @DF-UKS Final Energy: -1592.84035894905628
    Total Energy =                      -1592.8403589490565082
  Basis Set: AUG-CC-PVTZ
    Blend: AUG-CC-PVTZ
  Basis Set: (AUG-CC-PVTZ AUX)
    Blend: AUG-CC-PVTZ-JKFIT
  @DF-UKS Final Energy: -1592.84032965320330
    Total Energy =                      -1592.8403296532035256
  Basis Set: AUG-CC-PVTZ
    Blend: AUG-CC-PVTZ
  Basis Set: (AUG-CC-PVTZ AUX)
    Blend: AUG-CC-PVTZ-JKFIT
  @DF-UKS Final Energy: -1592.84034288682869
    Total Energy =                      -1592.8403428868286937
  @DF-UKS Final Energy: -1592.84034564851527
    Total Energy =                      -1592.8403456485152674
  @DF-UKS Final Energy: -1592.84033576476327
    Total Energy =                      -1592.8403357647630401
  @DF-UKS Final Energy: -1592.84035290619136
    Total Energy =                      -1592.8403529061913559
  @DF-UKS Final Energy: -1592.84076974620075
    Total Energy =                      -1592.8407697462005217
  @DF-UKS Final Energy: -1592.84077522672828
    Total Energy =                      -1592.8407752267282831
  @DF-UKS Final Energy: -1592.84076405189558
    Total Energy =                      -1592.8407640518958033
  @DF-UKS Final Energy: -1592.84076678565725
    Total Energy =                      -1592.8407667856570242
  @DF-UKS Final Energy: -1592.84077243763977
    Total Energy =                      -1592.8407724376399983
  @DF-UKS Final Energy: -1592.84076516236382
    Total Energy =                      -1592.8407651623638230
  @DF-UKS Final Energy: -1592.84077418759716
    Total Energy =                      -1592.8407741875969350
  @DF-UKS Final Energy: -1592.84086323228030
    Total Energy =                      -1592.8408632322802987
  @DF-UKS Final Energy: -1592.84086274359697
    Total Energy =                      -1592.8408627435971994
  @DF-UKS Final Energy: -1592.84086349658241
    Total Energy =                      -1592.8408634965830970
  @DF-UKS Final Energy: -1592.84086186251284
    Total Energy =                      -1592.8408618625128383
  @DF-UKS Final Energy: -1592.84086434408209
    Total Energy =                      -1592.8408643440820924
  @DF-UKS Final Energy: -1592.84086343585204
    Total Energy =                      -1592.8408634358522704
  **** Optimization is complete! (in 12 steps) ****
    Final optimized geometry and variables:
  @DF-UKS Final Energy: -1592.84086676248035
    Total Energy =                      -1592.8408667624801183
  @DF-UKS Final Energy: -1592.84086675762364
    Total Energy =                      -1592.8408667576238713
  @DF-UKS Final Energy: -1592.84086683315468
    Total Energy =                      -1592.8408668331546778
  @DF-UKS Final Energy: -1592.84086671877253
    Total Energy =                      -1592.8408667187729861
  @DF-UKS Final Energy: -1592.84086672305239
    Total Energy =                      -1592.8408667230523861
  @DF-UKS Final Energy: -1592.84086669972794
    Total Energy =                      -1592.8408666997277123
  @DF-UKS Final Energy: -1592.84086670458828
    Total Energy =                      -1592.8408667045880520
  @DF-UKS Final Energy: -1592.84086676248171
    Total Energy =                      -1592.8408667624821646
  @DF-UKS Final Energy: -1592.84086675762592
    Total Energy =                      -1592.8408667576261450
  @DF-UKS Final Energy: -1592.84086657868602
    Total Energy =                      -1592.8408665786857910
  @DF-UKS Final Energy: -1592.84086656752788
    Total Energy =                      -1592.8408665675278826
  @DF-UKS Final Energy: -1592.84086677646951
    Total Energy =                      -1592.8408667764692836
  @DF-UKS Final Energy: -1592.84086678295284
    Total Energy =                      -1592.8408667829526166
  @DF-UKS Final Energy: -1592.84086660158505
    Total Energy =                      -1592.8408666015848212
  @DF-UKS Final Energy: -1592.84086659846707
    Total Energy =                      -1592.8408665984670733
  @DF-UKS Final Energy: -1592.84086683031933
    Total Energy =                      -1592.8408668303188733
  Basis Set: AUG-CC-PVTZ
    Blend: AUG-CC-PVTZ
  Basis Set: (AUG-CC-PVTZ AUX)
    Blend: AUG-CC-PVTZ-JKFIT
  @DF-UKS Final Energy: -1592.84086673267825
    Total Energy =                      -1592.8408667326784780
  Basis Set: AUG-CC-PVTZ
    Blend: AUG-CC-PVTZ
  Basis Set: (AUG-CC-PVTZ AUX)
    Blend: AUG-CC-PVTZ-JKFIT
  @DF-UKS Final Energy: -1592.84086681290478
    Total Energy =                      -1592.8408668129050056
  Multiplicity = 2
  Basis Set: AUG-CC-PVTZ
    Blend: AUG-CC-PVTZ
  Basis Set: (AUG-CC-PVTZ AUX)
    Blend: AUG-CC-PVTZ-JKFIT
  @DF-UKS Final Energy: -1592.84086678396443
    Total Energy =                      -1592.8408667839644295
    Molecular point group: cs

    Geometry (in Angstrom), charge = -1, multiplicity = 2:

       Center              X                  Y                   Z               Mass
    ------------   -----------------  -----------------  -----------------  -----------------
         S           -0.000233967619     1.029112200153     0.000000000000    31.972071174400
         S           -0.000233967619    -1.029580135391     0.000000000000    31.972071174400
         S           -1.915900046206     1.600562426791     0.000000000000    31.972071174400
         S            1.916367981445    -1.600094491552     0.000000000000    31.972071174400

  Charge       = -1
  Multiplicity = 2
  Basis Set: AUG-CC-PVTZ
    Blend: AUG-CC-PVTZ
  Basis Set: (AUG-CC-PVTZ AUX)
    Blend: AUG-CC-PVTZ-JKFIT

    Orbital Energies [Eh]
    ---------------------

    Alpha Occupied:

       1Ap   -89.114904     2Ap   -89.114781     3Ap   -89.027269
       4Ap   -89.027096     5Ap    -8.022713     6Ap    -8.022576
       7Ap    -7.939804     8Ap    -7.939621     9Ap    -5.932339
      10Ap    -5.932106     1App   -5.929513     2App   -5.929375
      11Ap    -5.928686    12Ap    -5.928563    13Ap    -5.851572
      14Ap    -5.851399     3App   -5.845197     4App   -5.844994
      15Ap    -5.843199    16Ap    -5.843020    17Ap    -0.810352
      18Ap    -0.724010    19Ap    -0.596695    20Ap    -0.526265
      21Ap    -0.355445    22Ap    -0.328962     5App   -0.326657
      23Ap    -0.262172     6App   -0.249509    24Ap    -0.191768
      25Ap    -0.156426     7App   -0.154300     8App   -0.122194

    Alpha Virtual:

      26Ap     0.135148    27Ap     0.148765    28Ap     0.152661
      29Ap     0.171650    30Ap     0.184206     9App    0.186993
      31Ap     0.195700    10App    0.203062    11App    0.207308
      32Ap     0.216979    33Ap     0.222233    12App    0.228739
      34Ap     0.233855    35Ap     0.236242    36Ap     0.245866
      37Ap     0.263194    38Ap     0.315954    39Ap     0.324270
      40Ap     0.333227    13App    0.344842    14App    0.361333
      41Ap     0.397703    42Ap     0.399384    43Ap     0.418982
      15App    0.422983    16App    0.425626    44Ap     0.427633
      45Ap     0.427762    46Ap     0.442581    17App    0.456977
      47Ap     0.486357    18App    0.489082    48Ap     0.491056
      49Ap     0.508082    19App    0.520803    50Ap     0.520892
      20App    0.524677    51Ap     0.557304    52Ap     0.576601
      21App    0.611840    22App    0.674793    53Ap     0.683158
      54Ap     0.690941    23App    0.698831    55Ap     0.705400
      56Ap     0.712193    24App    0.712436    25App    0.717703
      57Ap     0.722952    58Ap     0.726835    59Ap     0.734447
      26App    0.742483    60Ap     0.749197    61Ap     0.769255
      62Ap     0.783875    27App    0.786389    63Ap     0.788792
      64Ap     0.817151    28App    0.817719    29App    0.824811
      65Ap     0.838117    66Ap     0.847265    67Ap     0.850994
      30App    0.872166    68Ap     0.895546    31App    0.896165
      32App    0.918606    69Ap     0.928238    33App    0.947814
      34App    0.948192    70Ap     0.959245    71Ap     0.960987
      72Ap     0.974563    73Ap     0.989313    35App    0.994787
      74Ap     0.999810    75Ap     1.011490    36App    1.066213
      76Ap     1.097043    77Ap     1.152676    78Ap     1.168469
      37App    1.169121    38App    1.179344    39App    1.183652
      79Ap     1.203146    80Ap     1.210577    40App    1.261651
      81Ap     1.283909    82Ap     1.286168    83Ap     1.318006
      41App    1.329923    84Ap     1.334778    42App    1.346079
      43App    1.374627    85Ap     1.380799    44App    1.396359
      86Ap     1.406412    87Ap     1.451819    88Ap     1.527170
      89Ap     1.535909    90Ap     1.571734    91Ap     1.661557
      92Ap     1.687080    45App    1.968643    93Ap     1.971346
      46App    1.995327    94Ap     2.015726    47App    2.020318
      95Ap     2.028021    96Ap     2.029068    48App    2.045822
      49App    2.056312    97Ap     2.062229    98Ap     2.068623
      99Ap     2.085411    50App    2.093851    51App    2.138962
     100Ap     2.153913   101Ap     2.163692    52App    2.164126
      53App    2.189023   102Ap     2.196517   103Ap     2.206947
      54App    2.207796    55App    2.208166   104Ap     2.228198
      56App    2.232525    57App    2.243515   105Ap     2.266055
     106Ap     2.289136   107Ap     2.325662    58App    2.328195
     108Ap     2.344208   109Ap     2.352175   110Ap     2.353162
      59App    2.357086   111Ap     2.384850    60App    2.399644
      61App    2.414827    62App    2.446166   112Ap     2.454107
     113Ap     2.465624   114Ap     2.485585    63App    2.494088
     115Ap     2.498675    64App    2.510499    65App    2.519355
     116Ap     2.525341   117Ap     2.578822   118Ap     2.596190
     119Ap     2.614698   120Ap     2.676580    66App    2.704454
     121Ap     2.741246   122Ap     2.742478    67App    2.766345
      68App    2.785820   123Ap     2.831353   124Ap     2.882489
     125Ap     2.908387   126Ap     3.820414   127Ap     3.864861
     128Ap     3.906247   129Ap     5.070518   130Ap     5.458592
     131Ap     5.843786   132Ap     6.000230

    Beta Occupied:

       1Ap   -89.112663     2Ap   -89.112545     3Ap   -89.026247
       4Ap   -89.026081     5Ap    -8.020452     6Ap    -8.020308
       7Ap    -7.938763     8Ap    -7.938587     9Ap    -5.930860
      10Ap    -5.930627    11Ap    -5.927206    12Ap    -5.927087
       1App   -5.921428     2App   -5.921310    13Ap    -5.851006
      14Ap    -5.850838    15Ap    -5.842495    16Ap    -5.842322
       3App   -5.841372     4App   -5.841195    17Ap    -0.802536
      18Ap    -0.716768    19Ap    -0.589567    20Ap    -0.509933
      21Ap    -0.348485    22Ap    -0.323544     5App   -0.301445
      23Ap    -0.255729     6App   -0.222997    24Ap    -0.188114
      25Ap    -0.153038     7App   -0.112285

    Beta Virtual:

       8App    0.086250    26Ap     0.135017    27Ap     0.148757
      28Ap     0.152494    29Ap     0.171247     9App    0.186170
      30Ap     0.187547    31Ap     0.195734    10App    0.204243
      11App    0.206903    32Ap     0.218621    33Ap     0.223013
      12App    0.227813    34Ap     0.233506    35Ap     0.238050
      36Ap     0.248890    37Ap     0.264326    38Ap     0.316510
      39Ap     0.324724    40Ap     0.333418    13App    0.350207
      14App    0.365714    41Ap     0.399142    42Ap     0.401162
      43Ap     0.421549    15App    0.425943    44Ap     0.428719
      45Ap     0.429400    16App    0.432608    46Ap     0.444343
      17App    0.460029    47Ap     0.486968    18App    0.491109
      48Ap     0.491692    49Ap     0.509334    19App    0.520707
      50Ap     0.521741    20App    0.527330    51Ap     0.558379
      52Ap     0.577583    21App    0.617540    22App    0.678753
      53Ap     0.683033    54Ap     0.691816    23App    0.704239
      55Ap     0.706825    56Ap     0.715476    24App    0.717989
      25App    0.722871    57Ap     0.724694    58Ap     0.728716
      59Ap     0.735640    26App    0.749723    60Ap     0.751084
      61Ap     0.771807    62Ap     0.786126    27App    0.788642
      63Ap     0.790433    64Ap     0.818766    28App    0.821284
      29App    0.829482    65Ap     0.842455    66Ap     0.854723
      67Ap     0.857862    30App    0.878803    68Ap     0.898486
      31App    0.905045    32App    0.926630    69Ap     0.930270
      33App    0.949782    34App    0.953786    70Ap     0.961835
      71Ap     0.965362    72Ap     0.976944    73Ap     0.992521
      35App    0.996659    74Ap     1.002020    75Ap     1.013472
      36App    1.068319    76Ap     1.099432    77Ap     1.154787
      78Ap     1.169983    37App    1.172863    38App    1.183109
      39App    1.187667    79Ap     1.205253    80Ap     1.213239
      40App    1.264917    81Ap     1.284714    82Ap     1.286687
      83Ap     1.320548    41App    1.333040    84Ap     1.335786
      42App    1.351711    43App    1.379773    85Ap     1.383393
      44App    1.402133    86Ap     1.410663    87Ap     1.452512
      88Ap     1.528037    89Ap     1.541765    90Ap     1.581619
      91Ap     1.672048    92Ap     1.701468    45App    1.981251
      93Ap     1.981528    46App    2.010142    94Ap     2.024870
      47App    2.029710    95Ap     2.034938    96Ap     2.038481
      48App    2.055710    49App    2.066375    97Ap     2.070358
      98Ap     2.070591    99Ap     2.086774    50App    2.110689
      51App    2.157165   100Ap     2.162223   101Ap     2.167324
      52App    2.175001   102Ap     2.203327    53App    2.203705
     103Ap     2.212878    54App    2.216292    55App    2.221064
     104Ap     2.234087    56App    2.244872    57App    2.267113
     105Ap     2.268459   106Ap     2.292579   107Ap     2.328555
      58App    2.336643   108Ap     2.346314   109Ap     2.358754
     110Ap     2.359658    59App    2.366624   111Ap     2.392272
      60App    2.406136    61App    2.431431    62App    2.455815
     112Ap     2.460157   113Ap     2.471661   114Ap     2.492366
      63App    2.503451   115Ap     2.503590    64App    2.523707
      65App    2.529874   116Ap     2.534181   117Ap     2.586635
     118Ap     2.603670   119Ap     2.618972   120Ap     2.679440
      66App    2.720630   121Ap     2.745049   122Ap     2.747105
      67App    2.778809    68App    2.798062   123Ap     2.833076
     124Ap     2.883822   125Ap     2.910301   126Ap     3.823008
     127Ap     3.867528   128Ap     3.908886   129Ap     5.076694
     130Ap     5.463407   131Ap     5.850342   132Ap     6.008636

    Final Occupation by Irrep:
             Ap   App
    DOCC [    25,    7 ]
    SOCC [     0,    1 ]

  @DF-UKS Final Energy: -1592.84086678464041

   => Energetics <=

    Nuclear Repulsion Energy =            311.7156038835542518
    One-Electron Energy =               -2832.4723876231055328
    Two-Electron Energy =                1006.9402357577494058
    DFT Exchange-Correlation Energy =     -79.2886155047324905
    Empirical Dispersion Energy =           0.0000000000000000
    VV10 Nonlocal Energy =                  0.2642967018942001
    Total Energy =                      -1592.8408667846401841

  UHF NO Occupations:
  HONO-2 :    6App 1.9995590
  HONO-1 :    7App 1.9984691
  HONO-0 :    8App 1.0000000
  LUNO+0 :    9App 0.0015309
  LUNO+1 :   10App 0.0004410
  LUNO+2 :   11App 0.0003205
  LUNO+3 :   26 Ap 0.0001345

Computation Completed

Properties will be evaluated at   0.000000,   0.000000,   0.000000 [a0]

Properties computed using the SCF density matrix

  Nuclear Dipole Moment: [e a0]
     X:     0.0000      Y:    -0.0000      Z:     0.0000

  Electronic Dipole Moment: [e a0]
     X:    -0.0032      Y:     0.0026      Z:     0.0000

  Dipole Moment: [e a0]
     X:    -0.0032      Y:     0.0026      Z:     0.0000     Total:     0.0041

  Dipole Moment: [D]
     X:    -0.0081      Y:     0.0067      Z:     0.0000     Total:     0.0105

*** tstop() called on c4-9.compute.lan at Thu Feb 11 17:33:26 2021
Module time:
	user time   =     282.65 seconds =       4.71 minutes
	system time =       2.13 seconds =       0.04 minutes
	total time  =        286 seconds =       4.77 minutes
Total time:
	user time   =   12728.18 seconds =     212.14 minutes
	system time =     111.65 seconds =       1.86 minutes
	total time  =      12877 seconds =     214.62 minutes

         ----------------------------------------------------------
                                   FINDIF
                     R. A. King and Jonathon Misiewicz
         ---------------------------------------------------------

  Computing second-derivative from energies using projected,
  symmetry-adapted, cartesian coordinates.

  18 energies passed in, including the reference geometry.
    Using 3-point formula.
    Energy without displacement: -1592.8408668332
    Check energies below for precision!
    0: -1        :     -1592.8408667188
    0: 1         :     -1592.8408667231
    1: -1        :     -1592.8408666997
    1: 1         :     -1592.8408667046
    2: -1        :     -1592.8408667625
    2: 1         :     -1592.8408667576
    0: 1, 1: 1   :     -1592.8408665787
    0: -1, 1: -1 :     -1592.8408665675
    0: 1, 2: 1   :     -1592.8408667765
    0: -1, 2: -1 :     -1592.8408667830
    1: 1, 2: 1   :     -1592.8408666016
    1: -1, 2: -1 :     -1592.8408665985
    3: -1        :     -1592.8408668303
    4: -1        :     -1592.8408667327
    5: -1        :     -1592.8408668129
    4: 1, 5: 1   :     -1592.8408667840
    4: -1, 5: -1 :     -1592.8408667846

-------------------------------------------------------------

  ==> Harmonic Vibrational Analysis <==

  non-mass-weighted Hessian:       Symmetric? True   Hermitian? True   Lin Dep Dim?  6 (0)
  projection of translations (True) and rotations (True) removed 6 degrees of freedom (6)
  total projector:                 Symmetric? True   Hermitian? True   Lin Dep Dim?  6 (6)
  mass-weighted Hessian:           Symmetric? True   Hermitian? True   Lin Dep Dim?  6 (0)
  pre-proj  low-frequency mode:    0.0000i [cm^-1]
  pre-proj  low-frequency mode:    0.0000i [cm^-1]
  pre-proj  low-frequency mode:    0.0000  [cm^-1]
  pre-proj  low-frequency mode:    0.0000  [cm^-1]
  pre-proj  low-frequency mode:    0.0000  [cm^-1]
  pre-proj  low-frequency mode:    0.0000  [cm^-1]
  pre-proj  low-frequency mode:   77.4199  [cm^-1]
  pre-proj  all modes:['0.0000i' '0.0000i' '0.0000' '0.0000' '0.0000' '0.0000' '77.4199'
 '117.2797' '212.4324' '491.3829' '531.0316' '584.4744']
  projected mass-weighted Hessian: Symmetric? True   Hermitian? True   Lin Dep Dim?  6 (6)
  post-proj low-frequency mode:    0.0000i [cm^-1] (TR)
  post-proj low-frequency mode:    0.0000i [cm^-1] (TR)
  post-proj low-frequency mode:    0.0000i [cm^-1] (TR)
  post-proj low-frequency mode:    0.0000i [cm^-1] (TR)
  post-proj low-frequency mode:    0.0000  [cm^-1] (TR)
  post-proj low-frequency mode:    0.0000  [cm^-1] (TR)
  post-proj low-frequency mode:   77.4199  [cm^-1] (V)
  post-proj  all modes:['0.0000i' '0.0000i' '0.0000i' '0.0000i' '0.0000' '0.0000' '77.4199'
 '117.2797' '212.4324' '491.3829' '531.0316' '584.4744']

  Vibration                       7                   8                   9
  Freq [cm^-1]                 77.4199             117.2797            212.4324
  Irrep                           Au                  Bu                  Ag
  Reduced mass [u]             31.9721             31.9721             31.9721
  Force const [mDyne/A]         0.1129              0.2591              0.8501
  Turning point v=0 [a0]        0.2205              0.1792              0.1331
  RMS dev v=0 [a0 u^1/2]        0.8818              0.7164              0.5323
  Char temp [K]                111.3900            168.7394            305.6430
  ----------------------------------------------------------------------------------
      1   S               -0.00 -0.00  0.50    0.18  0.47  0.00   -0.39  0.11  0.00
      2   S               -0.00 -0.00  0.50    0.18  0.47  0.00    0.39 -0.11 -0.00
      3   S                0.00  0.00 -0.50   -0.18 -0.47 -0.00   -0.33  0.48 -0.00
      4   S               -0.00 -0.00 -0.50   -0.18 -0.47 -0.00    0.33 -0.48  0.00

  Vibration                       10                  11                  12
  Freq [cm^-1]                 491.3829            531.0316            584.4744
  Irrep                           Bu                  Ag                  Ag
  Reduced mass [u]             31.9721             31.9721             31.9721
  Force const [mDyne/A]         4.5484              5.3120              6.4351
  Turning point v=0 [a0]        0.0875              0.0842              0.0803
  RMS dev v=0 [a0 u^1/2]        0.3500              0.3367              0.3209
  Char temp [K]                706.9906            764.0362            840.9285
  ----------------------------------------------------------------------------------
      1   S                0.47 -0.18  0.00    0.09  0.70  0.00    0.52 -0.05 -0.00
      2   S                0.47 -0.18 -0.00   -0.09 -0.70 -0.00   -0.52  0.05  0.00
      3   S               -0.47  0.18 -0.00    0.02 -0.07  0.00   -0.46  0.11  0.00
      4   S               -0.47  0.18  0.00   -0.02  0.07 -0.00    0.46 -0.11 -0.00

  ==> Thermochemistry Components <==

  Entropy, S
    Electronic S            1.377 [cal/(mol K)]        5.763 [J/(mol K)]       0.00219507 [mEh/K] (multiplicity = 2)
    Translational S        40.451 [cal/(mol K)]      169.248 [J/(mol K)]       0.06446314 [mEh/K] (mol. weight = 127.8883 [u], P = 101325.00 [Pa])
    Rotational S           25.938 [cal/(mol K)]      108.523 [J/(mol K)]       0.04133437 [mEh/K] (symmetry no. = 2)
    Vibrational S          10.865 [cal/(mol K)]       45.458 [J/(mol K)]       0.01731398 [mEh/K]
  Total S                  78.631 [cal/(mol K)]      328.992 [J/(mol K)]       0.12530656 [mEh/K]
  Correction S              0.000 [cal/(mol K)]        0.000 [J/(mol K)]       0.00000000 [mEh/K]

  Constant volume heat capacity, Cv
    Electronic Cv           0.000 [cal/(mol K)]        0.000 [J/(mol K)]       0.00000000 [mEh/K]
    Translational Cv        2.981 [cal/(mol K)]       12.472 [J/(mol K)]       0.00475022 [mEh/K]
    Rotational Cv           2.981 [cal/(mol K)]       12.472 [J/(mol K)]       0.00475022 [mEh/K]
    Vibrational Cv          9.237 [cal/(mol K)]       38.646 [J/(mol K)]       0.01471949 [mEh/K]
  Total Cv                 15.198 [cal/(mol K)]       63.589 [J/(mol K)]       0.02421992 [mEh/K]
  Correction Cv             0.000 [cal/(mol K)]        0.000 [J/(mol K)]       0.00000000 [mEh/K]

  Constant pressure heat capacity, Cp
    Electronic Cp           0.000 [cal/(mol K)]        0.000 [J/(mol K)]       0.00000000 [mEh/K]
    Translational Cp        4.968 [cal/(mol K)]       20.786 [J/(mol K)]       0.00791703 [mEh/K]
    Rotational Cp           2.981 [cal/(mol K)]       12.472 [J/(mol K)]       0.00475022 [mEh/K]
    Vibrational Cp          9.237 [cal/(mol K)]       38.646 [J/(mol K)]       0.01471949 [mEh/K]
  Total Cp                 17.185 [cal/(mol K)]       71.904 [J/(mol K)]       0.02738673 [mEh/K]
  Correction Cp             0.000 [cal/(mol K)]        0.000 [J/(mol K)]       0.00000000 [mEh/K]

  ==> Thermochemistry Energy Analysis <==

  Raw electronic energy, E0
  Total E0, Electronic energy at well bottom at 0 [K]                -1592.84086683 [Eh]

  Zero-point energy, ZPE_vib = Sum_i nu_i / 2
    Electronic ZPE          0.000 [kcal/mol]        0.000 [kJ/mol]       0.00000000 [Eh]
    Translational ZPE       0.000 [kcal/mol]        0.000 [kJ/mol]       0.00000000 [Eh]
    Rotational ZPE          0.000 [kcal/mol]        0.000 [kJ/mol]       0.00000000 [Eh]
    Vibrational ZPE         2.879 [kcal/mol]       12.047 [kJ/mol]       0.00458828 [Eh]        1007.010 [cm^-1]
  Correction ZPE            2.879 [kcal/mol]       12.047 [kJ/mol]       0.00458828 [Eh]        1007.010 [cm^-1]
  Total ZPE, Electronic energy at 0 [K]                              -1592.83627856 [Eh]

  Thermal Energy, E (includes ZPE)
    Electronic E            0.000 [kcal/mol]        0.000 [kJ/mol]       0.00000000 [Eh]
    Translational E         0.889 [kcal/mol]        3.718 [kJ/mol]       0.00141628 [Eh]
    Rotational E            0.889 [kcal/mol]        3.718 [kJ/mol]       0.00141628 [Eh]
    Vibrational E           4.526 [kcal/mol]       18.935 [kJ/mol]       0.00721203 [Eh]
  Correction E              6.303 [kcal/mol]       26.372 [kJ/mol]       0.01004458 [Eh]
  Total E, Electronic energy at  298.15 [K]                          -1592.83082225 [Eh]

  Enthalpy, H_trans = E_trans + k_B * T
    Electronic H            0.000 [kcal/mol]        0.000 [kJ/mol]       0.00000000 [Eh]
    Translational H         1.481 [kcal/mol]        6.197 [kJ/mol]       0.00236046 [Eh]
    Rotational H            0.889 [kcal/mol]        3.718 [kJ/mol]       0.00141628 [Eh]
    Vibrational H           4.526 [kcal/mol]       18.935 [kJ/mol]       0.00721203 [Eh]
  Correction H              6.896 [kcal/mol]       28.851 [kJ/mol]       0.01098876 [Eh]
  Total H, Enthalpy at  298.15 [K]                                   -1592.82987807 [Eh]

  Gibbs free energy, G = H - T * S
    Electronic G           -0.411 [kcal/mol]       -1.718 [kJ/mol]      -0.00065446 [Eh]
    Translational G       -10.579 [kcal/mol]      -44.264 [kJ/mol]      -0.01685922 [Eh]
    Rotational G           -6.845 [kcal/mol]      -28.638 [kJ/mol]      -0.01090757 [Eh]
    Vibrational G           1.286 [kcal/mol]        5.382 [kJ/mol]       0.00204986 [Eh]
  Correction G            -16.548 [kcal/mol]      -69.238 [kJ/mol]      -0.02637139 [Eh]
  Total G, Free enthalpy at  298.15 [K]                              -1592.86723822 [Eh]

    Psi4 stopped on: Thursday, 11 February 2021 05:33PM
    Psi4 wall time for execution: 3:34:37.00

*** Psi4 exiting successfully. Buy a developer a beer!
