                               Psi4 1.3.2 release

  ==> Input File <==

--------------------------------------------------------------------------
memory 46 GB

basis jerome {
assign pot
assign S aug-cc-pV(T+d)Z

[pot]
spherical
****
 K  0
 S 23 1.00
    2.709796E+07     4.136110E-07
    3.592856E+06     3.860330E-06
    7.222638E+05     2.394640E-05
    1.833976E+05     1.157540E-04
    5.464812E+04     4.697010E-04
    1.830913E+04     1.673720E-03
    6.712501E+03     5.370450E-03
    2.643719E+03     1.572510E-02
    1.103835E+03     4.193360E-02
    4.836777E+02     9.987620E-02
    2.206245E+02     2.019680E-01
    1.041117E+02     3.146270E-01
    5.052749E+01     3.107540E-01
    2.485247E+01     1.421920E-01
    1.128102E+01     1.658490E-02
    5.510166E+00    -2.759760E-04
    2.706914E+00     5.158310E-04
    1.122807E+00    -2.268950E-04
    5.236385E-01     6.652980E-05
    2.355180E-01    -3.685150E-05
    4.157977E-02     1.925250E-05
    2.555456E-02    -2.108420E-05
    1.471495E-02     7.044600E-06
 S 23 1.00
    2.709796E+07    -1.188290E-07
    3.592856E+06    -1.108550E-06
    7.222638E+05    -6.881230E-06
    1.833976E+05    -3.324150E-05
    5.464812E+04    -1.350850E-04
    1.830913E+04    -4.814570E-04
    6.712501E+03    -1.552620E-03
    2.643719E+03    -4.578330E-03
    1.103835E+03    -1.247930E-02
    4.836777E+02    -3.094650E-02
    2.206245E+02    -6.855530E-02
    1.041117E+02    -1.268300E-01
    5.052749E+01    -1.745020E-01
    2.485247E+01    -9.089560E-02
    1.128102E+01     2.506960E-01
    5.510166E+00     5.589630E-01
    2.706914E+00     3.284370E-01
    1.122807E+00     3.392170E-02
    5.236385E-01    -2.100280E-03
    2.355180E-01     1.383960E-03
    4.157977E-02    -5.315630E-04
    2.555456E-02     5.770310E-04
    1.471495E-02    -1.931440E-04
 S 23 1.00
    2.709796E+07     3.917470E-08
    3.592856E+06     3.650640E-07
    7.222638E+05     2.269460E-06
    1.833976E+05     1.094290E-05
    5.464812E+04     4.457360E-05
    1.830913E+04     1.584480E-04
    6.712501E+03     5.128440E-04
    2.643719E+03     1.507690E-03
    1.103835E+03     4.136940E-03
    4.836777E+02     1.024690E-02
    2.206245E+02     2.306520E-02
    1.041117E+02     4.308900E-02
    5.052749E+01     6.238120E-02
    2.485247E+01     3.270420E-02
    1.128102E+01    -1.021980E-01
    5.510166E+00    -3.317970E-01
    2.706914E+00    -3.030100E-01
    1.122807E+00     3.098410E-01
    5.236385E-01     6.732700E-01
    2.355180E-01     2.812200E-01
    4.157977E-02     9.376240E-03
    2.555456E-02    -6.955720E-03
    1.471495E-02     2.069460E-03
 S 23 1.00
    2.709796E+07    -7.564440E-09
    3.592856E+06    -7.055390E-08
    7.222638E+05    -4.380820E-07
    1.833976E+05    -2.115540E-06
    5.464812E+04    -8.601300E-06
    1.830913E+04    -3.064440E-05
    6.712501E+03    -9.892550E-05
    2.643719E+03    -2.917760E-04
    1.103835E+03    -7.977860E-04
    4.836777E+02    -1.985820E-03
    2.206245E+02    -4.449740E-03
    1.041117E+02    -8.390260E-03
    5.052749E+01    -1.206000E-02
    2.485247E+01    -6.568410E-03
    1.128102E+01     2.061430E-02
    5.510166E+00     6.770060E-02
    2.706914E+00     6.639570E-02
    1.122807E+00    -8.237770E-02
    5.236385E-01    -1.727150E-01
    2.355180E-01    -2.310290E-01
    4.157977E-02     5.090040E-01
    2.555456E-02     3.472180E-01
    1.471495E-02     2.809620E-01
 S 1 1.00
    2.555456E-02     1.000000E+00
 S 1 1.00
    1.471495E-02     1.000000E+00
 S 1 1.00
    8.470000E-03     1.000000E+00
 P 16 1.00
    9.533309E+03     4.212010E-05
    1.852081E+03     5.068300E-04
    5.464251E+02     3.311700E-03
    1.966947E+02     1.536840E-02
    7.964112E+01     5.457060E-02
    3.488324E+01     1.473880E-01
    1.604479E+01     2.879240E-01
    7.575632E+00     3.750810E-01
    3.672548E+00     2.545160E-01
    1.771130E+00     6.059280E-02
    8.515199E-01     2.508370E-03
    4.016017E-01     6.688870E-04
    1.851933E-01    -1.486150E-04
    5.523390E-02     4.936010E-05
    2.431085E-02    -3.513850E-05
    1.080339E-02     1.171450E-05
 P 16 1.00
    9.533309E+03    -1.280760E-05
    1.852081E+03    -1.547870E-04
    5.464251E+02    -1.010940E-03
    1.966947E+02    -4.738330E-03
    7.964112E+01    -1.703260E-02
    3.488324E+01    -4.754130E-02
    1.604479E+01    -9.560810E-02
    7.575632E+00    -1.337000E-01
    3.672548E+00    -7.425060E-02
    1.771130E+00     1.646810E-01
    8.515199E-01     4.057630E-01
    4.016017E-01     4.113600E-01
    1.851933E-01     1.734240E-01
    5.523390E-02     1.253640E-02
    2.431085E-02    -3.267140E-03
    1.080339E-02     1.039680E-03
 P 16 1.00
    9.533309E+03     1.764010E-06
    1.852081E+03     2.124880E-05
    5.464251E+02     1.392500E-04
    1.966947E+02     6.509140E-04
    7.964112E+01     2.349940E-03
    3.488324E+01     6.547470E-03
    1.604479E+01     1.326270E-02
    7.575632E+00     1.848520E-02
    3.672548E+00     1.025530E-02
    1.771130E+00    -2.652150E-02
    8.515199E-01    -6.086460E-02
    4.016017E-01    -7.474220E-02
    1.851933E-01    -4.870880E-02
    5.523390E-02     2.245720E-01
    2.431085E-02     5.839280E-01
    1.080339E-02     2.980960E-01
 P 1 1.00
    5.523390E-02     1.000000E+00
 P 1 1.00
    1.080339E-02     1.000000E+00
 P 1 1.00
    4.800000E-03     1.000000E+00
 D 6 1.00
    5.670903E+00     8.285900E-03
    1.459042E+00     2.332530E-02
    5.431827E-01     4.878080E-02
    1.346875E-01     7.349020E-02
    5.516013E-02     2.387630E-01
    1.501876E-02     8.253200E-01
 D 1 1.00
    5.516013E-02     1.000000E+00
 D 1 1.00
    1.501876E-02     1.000000E+00
 D 1 1.00
    6.010000E-03     1.000000E+00
 F 1 1.00
    8.493750E-02     1.000000E+00
 F 1 1.00
    3.398000E-02     1.000000E+00
 ****
}

molecule  {
0 2
S    0.000000000000    0.000000000000    0.486387789921
S    0.000000000000    0.000000000000    2.501242611776
K    0.000000000000    0.000000000000   -2.451530936340
}
set {
basis jerome
reference uhf
g_convergence gau_verytight
e_convergence 10
scf_type pk
freeze_core true
geom_maxiter 100
}

set ccenergy {
e_convergence 10
r_convergence 10
}

e = energy('ccsd(t)')

print_out('Stephenergy {}'.format(e))

--------------------------------------------------------------------------

    Molecular point group: c2v

    Geometry (in Angstrom), charge = 0, multiplicity = 2:

       Center              X                  Y                   Z               Mass
    ------------   -----------------  -----------------  -----------------  -----------------
         S            0.000000000000     0.000000000000     0.486387789921    31.972071174400
         S            0.000000000000     0.000000000000     2.501242611776    31.972071174400
         K            0.000000000000     0.000000000000    -2.451530936340    38.963706486400

  Charge       = 0
  Multiplicity = 2
  Basis Set: JEROME
    Blend: AUG-CC-PV(T+D)Z + POT

    Orbital Energies [Eh]
    ---------------------

    Alpha Occupied:

       1A1  -133.573166     2A1   -91.907635     3A1   -91.876566
       4A1   -14.529621     1B2   -11.559628     1B1   -11.559568
       5A1   -11.559480     6A1    -8.905678     7A1    -8.876380
       2B2    -6.598150     8A1    -6.583831     2B1    -6.581841
       3B2    -6.561253     9A1    -6.556728     3B1    -6.555493
      10A1    -1.788176     4B2    -0.996627    11A1    -0.996584
       4B1    -0.996120    12A1    -0.950584    13A1    -0.740285
       5B2    -0.413021    14A1    -0.410166     5B1    -0.374406
       6B2    -0.276548     6B1    -0.239180

    Alpha Virtual:

      15A1    -0.025377     7B2     0.000207     7B1     0.000459
      16A1     0.003566    17A1     0.014382     1A2     0.016332
      18A1     0.016346     8B2     0.017605     8B1     0.017928
       9B2     0.022315     9B1     0.022784    19A1     0.026564
      20A1     0.030652     2A2     0.048220    21A1     0.048225
      10B2     0.057899    10B1     0.058915    22A1     0.061358
      11B2     0.069021    11B1     0.069743    23A1     0.080144
      24A1     0.091664    25A1     0.107460    12B2     0.116984
      12B1     0.118436    13B2     0.122983    13B1     0.122984
      26A1     0.128563     3A2     0.128608    27A1     0.131747
       4A2     0.146399    28A1     0.146419    14B2     0.157303
      14B1     0.161982    29A1     0.167962    15B2     0.183092
      15B1     0.187068    30A1     0.197683    31A1     0.221390
      16B2     0.221541    16B1     0.223523    17B2     0.231194
      17B1     0.234740    32A1     0.277383    33A1     0.306761
      34A1     0.315098     5A2     0.317871    35A1     0.323799
      18B2     0.358544    18B1     0.365097     6A2     0.367673
      36A1     0.367841    19B2     0.375988    19B1     0.375989
       7A2     0.378916    37A1     0.378916    20B2     0.396712
      20B1     0.399981    38A1     0.400216    39A1     0.438903
       8A2     0.452322    40A1     0.452750    41A1     0.455675
      21B2     0.455678    21B1     0.465941    42A1     0.533989
      22B2     0.539120    22B1     0.551638    23B2     0.649903
      23B1     0.666486    43A1     0.717945    24B2     0.733218
      24B1     0.746887    44A1     0.755067     9A2     0.758497
      45A1     0.775192    25B2     0.841012    10A2     0.855078
      46A1     0.855095    25B1     0.861792    47A1     0.871100
      26B2     0.874873    26B1     0.874888    27B2     0.938362
      27B1     0.952590    48A1     0.965407    11A2     0.968645
      49A1     0.969616    28B2     1.017541    28B1     1.017551
      50A1     1.041495    51A1     1.176199    29B2     1.188565
      29B1     1.204038    52A1     1.220480    12A2     1.221634
      53A1     1.269348    30B2     1.380753    30B1     1.397692
      54A1     1.521551    55A1     1.724453    13A2     2.001205
      56A1     2.001919    57A1     2.090031    14A2     2.090065
      31B2     2.136314    58A1     2.136846    31B1     2.155590
      32B2     2.226874    32B1     2.248882    33B2     2.308442
      59A1     2.309043    33B1     2.328331    15A2     2.386991
      60A1     2.387525    34B2     2.411184    34B1     2.411322
      35B2     2.477695    35B1     2.478021    36B2     2.478417
      36B1     2.502227    61A1     2.503944    37B2     2.604941
      62A1     2.612958    16A2     2.613691    37B1     2.624513
      63A1     2.755077    64A1     2.865374    38B2     2.928907
      38B1     2.950621    65A1     4.064421    66A1     5.004661
      67A1     5.793375    68A1     7.396506    17A2     7.396667
      69A1     7.450353    18A2     7.450371    39B2     7.477043
      39B1     7.492968    40B2     7.553520    40B1     7.561690
      70A1     7.616610    71A1     7.668725

    Beta Occupied:

       1A1  -133.573179     2A1   -91.899990     3A1   -91.874025
       4A1   -14.529639     1B2   -11.559588     1B1   -11.559583
       5A1   -11.559529     6A1    -8.897342     7A1    -8.873606
       8A1    -6.579553     2B1    -6.577251     2B2    -6.564561
       9A1    -6.556147     3B1    -6.553870     3B2    -6.549561
      10A1    -1.788206     4B2    -0.996360     4B1    -0.996186
      11A1    -0.996070    12A1    -0.912385    13A1    -0.675632
      14A1    -0.394099     5B1    -0.365589     5B2    -0.298225
       6B1    -0.227300

    Beta Virtual:

      15A1    -0.025266     6B2     0.000158     7B1     0.000461
      16A1     0.003620    17A1     0.014382     1A2     0.016332
      18A1     0.016346     7B2     0.017440     8B1     0.017932
       8B2     0.022354     9B1     0.022785    19A1     0.026706
      20A1     0.030687     2A2     0.048248    21A1     0.048251
       9B2     0.056985    10B1     0.058931    22A1     0.061363
      10B2     0.065369    11B1     0.069752    11B2     0.079581
      23A1     0.080070    24A1     0.092637    25A1     0.108628
      12B1     0.118554    12B2     0.122859    13B1     0.123003
      13B2     0.123072    26A1     0.128635     3A2     0.128683
      27A1     0.131891     4A2     0.146799    28A1     0.146806
      14B1     0.162172    14B2     0.162800    29A1     0.167784
      15B1     0.187594    15B2     0.197361    30A1     0.206223
      16B2     0.222711    31A1     0.223074    16B1     0.223514
      17B1     0.234430    17B2     0.238327    32A1     0.277424
      33A1     0.309805    34A1     0.323667     5A2     0.327373
      35A1     0.328010    18B1     0.364740    18B2     0.367175
       6A2     0.372576    36A1     0.372638    19B1     0.376127
      19B2     0.376128     7A2     0.379308    37A1     0.379313
      20B1     0.399755    38A1     0.400714    20B2     0.401404
      39A1     0.443922    40A1     0.457238     8A2     0.460461
      41A1     0.460944    21B1     0.466728    21B2     0.474692
      42A1     0.540316    22B1     0.552719    22B2     0.565113
      23B1     0.668679    23B2     0.672141    43A1     0.722881
      24B1     0.749181    24B2     0.755862    44A1     0.775503
      45A1     0.789374     9A2     0.789729    25B1     0.863231
      25B2     0.873200    46A1     0.878369    10A2     0.880662
      26B1     0.880805    26B2     0.880988    47A1     0.881205
      27B1     0.953047    27B2     0.959643    48A1     0.972369
      11A2     0.979337    49A1     0.979557    28B1     1.027175
      28B2     1.027181    50A1     1.047002    51A1     1.181863
      29B2     1.201529    29B1     1.204444    52A1     1.228551
      12A2     1.228916    53A1     1.273380    30B2     1.397357
      30B1     1.399707    54A1     1.535185    55A1     1.735747
      56A1     2.020556    13A2     2.020595    57A1     2.101867
      14A2     2.101972    58A1     2.138816    31B2     2.149859
      31B1     2.156858    32B2     2.249776    32B1     2.251176
      59A1     2.313958    33B2     2.325578    33B1     2.330392
      15A2     2.399460    60A1     2.399505    34B1     2.434959
      34B2     2.434962    35B1     2.496087    35B2     2.496090
      36B1     2.506681    61A1     2.507914    36B2     2.512963
      62A1     2.626507    16A2     2.626628    37B2     2.626863
      37B1     2.627557    63A1     2.761277    64A1     2.870015
      38B2     2.948754    38B1     2.952666    65A1     4.067567
      66A1     5.014882    67A1     5.802582    68A1     7.404712
      17A2     7.404789    69A1     7.454247    18A2     7.454260
      39B2     7.484585    39B1     7.494043    40B2     7.557050
      40B1     7.562078    70A1     7.619039    71A1     7.670190

    Final Occupation by Irrep:
             A1    A2    B1    B2
    DOCC [    14,    0,    6,    5 ]
    SOCC [     0,    0,    0,    1 ]

  @UHF Final Energy: -1394.29576823316620

   => Energetics <=

    Nuclear Repulsion Energy =            154.4724699371309100
    One-Electron Energy =               -2234.2122876734702004
    Two-Electron Energy =                 685.4440495031732326
    Total Energy =                      -1394.2957682331661999

  UHF NO Occupations:
  HONO-2 :   14 A1 1.9957394
  HONO-1 :    5 B2 1.9922211
  HONO-0 :    6 B2 1.0000000
  LUNO+0 :    7 B2 0.0077789
  LUNO+1 :   15 A1 0.0042606
  LUNO+2 :   16 A1 0.0009131
  LUNO+3 :    7 B1 0.0003812

Computation Completed

Properties will be evaluated at   0.000000,   0.000000,   0.000000 [a0]

Properties computed using the SCF density matrix

  Nuclear Dipole Moment: [e a0]
     X:     0.0000      Y:     0.0000      Z:     2.3111

  Electronic Dipole Moment: [e a0]
     X:     0.0000      Y:     0.0000      Z:    -7.8511

  Dipole Moment: [e a0]
     X:     0.0000      Y:     0.0000      Z:    -5.5400     Total:     5.5400

  Dipole Moment: [D]
     X:     0.0000      Y:     0.0000      Z:   -14.0812     Total:    14.0812

*** tstop() called on d2-24.compute.lan at Wed Mar 10 12:55:23 2021
Module time:
	user time   =     265.90 seconds =       4.43 minutes
	system time =       3.51 seconds =       0.06 minutes
	total time  =         73 seconds =       1.22 minutes
Total time:
	user time   =     265.90 seconds =       4.43 minutes
	system time =       3.51 seconds =       0.06 minutes
	total time  =         73 seconds =       1.22 minutes
 MINTS: Wrapper to libmints.
   by Justin Turney

   Calculation information:
      Number of threads:                12
      Number of atoms:                   3
      Number of AO shells:              53
      Number of SO shells:              53
      Number of primitives:            287
      Number of atomic orbitals:       199
      Number of basis functions:       169

      Number of irreps:                  4
      Integral cutoff                 0.00e+00
      Number of functions per irrep: [  71   18   40   40 ]

 OEINTS: Overlap, kinetic, potential, dipole, and quadrupole integrals
         stored in file 35.

      Computing two-electron integrals...done
      Computed 23780417 non-zero two-electron integrals.
        Stored in file 33.

*** tstart() called on d2-24.compute.lan
*** at Wed Mar 10 12:57:30 2021

	Wfn Parameters:
	--------------------
	Wavefunction         = CCSD_T
	Number of irreps     = 4
	Number of MOs        = 169
	Number of active MOs = 150
	AO-Basis             = NONE
	Semicanonical        = false
	Reference            = UHF
	Print Level          = 1

	IRREP	# MOs	# FZDC	# DOCC	# SOCC	# VIRT	# FZVR
	-----	-----	------	------	------	------	------
	 A1	   71	    11	    3	    0	    57	    0
	 A2	   18	    0	    0	    0	    18	    0
	 B1	   40	    4	    2	    0	    34	    0
	 B2	   40	    4	    1	    1	    34	    0
	Transforming integrals...
	IWL integrals will be deleted.
	(OO|OO)...
	Presorting SO-basis two-electron integrals.
	Sorting File: SO Ints (nn|nn) nbuckets = 1
	Transforming the one-electron integrals and constructing Fock matrices
	Starting AA/AB first half-transformation.
	Sorting AA/AB half-transformed integrals.
	Starting BB first half-transformation.
	Sorting BB half-transformed integrals.
	First half integral transformation complete.
	Starting AA second half-transformation.
	Starting AB second half-transformation.
	Starting BB second half-transformation.
	Two-electron integral transformation complete.
	(OO|OV)...
	Starting AA second half-transformation.
	Starting AB second half-transformation.
	Starting BB second half-transformation.
	Two-electron integral transformation complete.
	(OO|VV)...
	Starting AA second half-transformation.
	Starting AB second half-transformation.
	Starting BB second half-transformation.
	Two-electron integral transformation complete.
	(OV|OO)...
	Starting AA/AB first half-transformation.
	Sorting AA/AB half-transformed integrals.
	Starting BB first half-transformation.
	Sorting BB half-transformed integrals.
	First half integral transformation complete.
	Starting AA second half-transformation.
	Starting AB second half-transformation.
	Starting BB second half-transformation.
	Two-electron integral transformation complete.
	(OV|OV)...
	Starting AA second half-transformation.
	Starting AB second half-transformation.
	Starting BB second half-transformation.
	Two-electron integral transformation complete.
	(OV|VV)...
	Starting AA second half-transformation.
	Starting AB second half-transformation.
	Starting BB second half-transformation.
	Two-electron integral transformation complete.
	(VV|OO)...
	Starting AA/AB first half-transformation.
	Sorting AA/AB half-transformed integrals.
	Starting BB first half-transformation.
	Sorting BB half-transformed integrals.
	First half integral transformation complete.
	Starting AA second half-transformation.
	Starting AB second half-transformation.
	Starting BB second half-transformation.
	Two-electron integral transformation complete.
	(VV|OV)...
	Starting AA second half-transformation.
	Starting AB second half-transformation.
	Starting BB second half-transformation.
	Two-electron integral transformation complete.
	(VV|VV)...
	Starting AA second half-transformation.
	Starting AB second half-transformation.
	Starting BB second half-transformation.
	Two-electron integral transformation complete.
	Frozen core energy     =  -1517.50026745822265

	Size of irrep 0 of <AB|CD> integrals:      8.243 (MW) /     65.941 (MB)
	Size of irrep 1 of <AB|CD> integrals:      4.761 (MW) /     38.089 (MB)
	Size of irrep 2 of <AB|CD> integrals:      6.503 (MW) /     52.020 (MB)
	Size of irrep 3 of <AB|CD> integrals:      6.503 (MW) /     52.020 (MB)
	Total:                                    26.009 (MW) /    208.070 (MB)

	Size of irrep 0 of <ab|cd> integrals:      8.439 (MW) /     67.512 (MB)
	Size of irrep 1 of <ab|cd> integrals:      4.911 (MW) /     39.285 (MB)
	Size of irrep 2 of <ab|cd> integrals:      6.595 (MW) /     52.757 (MB)
	Size of irrep 3 of <ab|cd> integrals:      6.796 (MW) /     54.372 (MB)
	Total:                                    26.741 (MW) /    213.926 (MB)

	Size of irrep 0 of <Ab|Cd> integrals:     35.035 (MW) /    280.276 (MB)
	Size of irrep 1 of <Ab|Cd> integrals:     19.342 (MW) /    154.739 (MB)
	Size of irrep 2 of <Ab|Cd> integrals:     26.194 (MW) /    209.551 (MB)
	Size of irrep 3 of <Ab|Cd> integrals:     26.595 (MW) /    212.757 (MB)
	Total:                                   107.166 (MW) /    857.324 (MB)

	Size of irrep 0 of <IA|BC> integrals:      1.807 (MW) /     14.454 (MB)
	Size of irrep 1 of <IA|BC> integrals:      0.829 (MW) /      6.633 (MB)
	Size of irrep 2 of <IA|BC> integrals:      1.285 (MW) /     10.282 (MB)
	Size of irrep 3 of <IA|BC> integrals:      1.285 (MW) /     10.282 (MB)
	Total:                                     5.206 (MW) /     41.650 (MB)

	Size of irrep 0 of <ia|bc> integrals:      1.631 (MW) /     13.051 (MB)
	Size of irrep 1 of <ia|bc> integrals:      0.700 (MW) /      5.602 (MB)
	Size of irrep 2 of <ia|bc> integrals:      1.202 (MW) /      9.615 (MB)
	Size of irrep 3 of <ia|bc> integrals:      1.032 (MW) /      8.259 (MB)
	Total:                                     4.566 (MW) /     36.527 (MB)

	Size of irrep 0 of <Ia|Bc> integrals:      1.829 (MW) /     14.632 (MB)
	Size of irrep 1 of <Ia|Bc> integrals:      0.844 (MW) /      6.755 (MB)
	Size of irrep 2 of <Ia|Bc> integrals:      1.290 (MW) /     10.318 (MB)
	Size of irrep 3 of <Ia|Bc> integrals:      1.315 (MW) /     10.520 (MB)
	Total:                                     5.278 (MW) /     42.225 (MB)

	Size of irrep 0 of <iA|bC> integrals:      1.616 (MW) /     12.927 (MB)
	Size of irrep 1 of <iA|bC> integrals:      0.686 (MW) /      5.489 (MB)
	Size of irrep 2 of <iA|bC> integrals:      1.198 (MW) /      9.581 (MB)
	Size of irrep 3 of <iA|bC> integrals:      1.006 (MW) /      8.045 (MB)
	Total:                                     4.505 (MW) /     36.042 (MB)

	Size of irrep 0 of tIjAb amplitudes:       0.089 (MW) /      0.710 (MB)
	Size of irrep 1 of tIjAb amplitudes:       0.026 (MW) /      0.211 (MB)
	Size of irrep 2 of tIjAb amplitudes:       0.061 (MW) /      0.491 (MB)
	Size of irrep 3 of tIjAb amplitudes:       0.046 (MW) /      0.371 (MB)
	Total:                                     0.223 (MW) /      1.784 (MB)

	Nuclear Rep. energy          =    154.47246993713091
	SCF energy                   =  -1394.29576823316620
	One-electron energy          =    -56.25852273780941
	Two-electron (AA) energy     =      6.13758493017423
	Two-electron (BB) energy     =      4.38882258329760
	Two-electron (AB) energy     =     14.46414451224083
	Two-electron energy          =     24.99055202571265
	Reference energy             =  -1394.29576823318848

*** tstop() called on d2-24.compute.lan at Wed Mar 10 12:58:19 2021
Module time:
	user time   =     341.92 seconds =       5.70 minutes
	system time =      18.66 seconds =       0.31 minutes
	total time  =         49 seconds =       0.82 minutes
Total time:
	user time   =     737.54 seconds =      12.29 minutes
	system time =      23.22 seconds =       0.39 minutes
	total time  =        249 seconds =       4.15 minutes
            **************************
            *                        *
            *        CCENERGY        *
            *                        *
            **************************

    Nuclear Rep. energy (wfn)     =  154.472469937130910
    SCF energy          (wfn)     = -1394.295768233166200
    Reference energy    (file100) = -1394.295768233188483

    Input parameters:
    -----------------
    Wave function   =     CCSD_T
    Reference wfn   =     UHF
    Brueckner       =     No
    Memory (Mbytes) =     46000.0
    Maxiter         =     50
    R_Convergence   =     1.0e-10
    E_Convergence   =     1.0e-10
    Restart         =     Yes
    DIIS            =     Yes
    AO Basis        =     NONE
    ABCD            =     NEW
    Cache Level     =     2
    Cache Type      =     LRU
    Print Level     =     1
    Num. of threads =     12
    # Amps to Print =     10
    Print MP2 Amps? =     No
    Analyze T2 Amps =     No
    Print Pair Ener =     No
    Local CC        =     No
    SCS-MP2         =     False
    SCSN-MP2        =     False
    SCS-CCSD        =     False

MP2 correlation energy -0.3404720433083472
                Solving CC Amplitude Equations
                ------------------------------
  Iter             Energy              RMS        T1Diag      D1Diag    New D1Diag    D2Diag

      * MP2 total energy                      = -1394.636240276496892
      * CCSD total energy                     = -1394.665562979483184
      * CCSD(T) total energy                     = -1394.686971867544798
*** Psi4 exiting successfully. Buy a developer a beer!
